108
Step=0 Lattice="10.56 0 0  0 10.56 0  0 0 10.56" Properties=species:S:1:pos:R:3
Ni 10.55563078 10.55817197 0.00537334
Ni 0.00068444 1.76366924 1.76233796
Ni 1.75713661 0.00205565 1.75852280
Ni 1.75847632 1.76015656 10.55336239
Ni 0.00494242 10.55687814 3.52414175
Ni 0.00043570 1.76627907 5.27705695
Ni 1.75852217 0.00118358 5.27045552
Ni 1.76338979 1.76632048 3.52468174
Ni 0.00307559 10.55911793 7.04534699
Ni 0.00443712 1.76141628 8.79989702
Ni 1.75831166 10.55449091 8.80511036
Ni 1.75058460 1.75816097 7.04057693
Ni 0.00352232 3.52725927 0.00411594
Ni 10.55860708 5.28284807 1.75449074
Ni 1.76595817 3.51907487 1.75699822
Ni 1.75712718 5.27947945 10.55819826
Ni 0.00962570 3.51667610 3.52001213
Ni 10.55997212 5.27986270 5.28011172
Ni 1.75779924 3.51725036 5.27619711
Ni 1.75350232 5.28066463 3.52407502
Ni 10.55753592 3.51735644 7.03852513
Ni 10.55788492 5.27361042 8.80570220
Ni 1.76172668 3.51670388 8.80114228
Ni 1.75798251 5.27883689 7.04142911
Ni 0.00391884 7.04622760 0.00714642
Ni 10.55879168 8.79760927 1.76029826
Ni 1.76040281 7.03660588 1.75722659
Ni 1.76332566 8.80674795 10.55890924
Ni 10.55708852 7.03853061 3.51562864
Ni 10.55869032 8.80154331 5.27952967
Ni 1.76512286 7.04038593 5.28192925
Ni 1.75921842 8.80535438 3.51465644
Ni 10.55855611 7.03473067 7.04340212
Ni 0.00348093 8.79754008 8.80695267
Ni 1.75858514 7.03383552 8.79867601
Ni 1.76139038 8.79874191 7.04954333
Ni 3.52350594 0.00712869 0.00578794
Ni 3.51265815 1.75813007 1.74823246
Ni 5.27709442 0.00449943 1.75627709
Ni 5.27713730 1.76113449 0.00323204
Ni 3.51833329 10.55864940 3.52332429
Ni 3.52093623 1.75852441 5.28121826
Ni 5.28017645 0.00082630 5.28841612
Ni 5.27854694 1.75743824 3.52590726
Ni 3.51683923 0.00708108 7.03904940
Ni 3.52017042 1.76287237 8.80505169
Ni 5.28410735 10.55887266 8.79830936
Ni 5.28133502 1.76031595 7.03713743
Ni 3.52160809 3.52398532 0.00058418
Ni 3.52652933 5.28149125 1.75920924
Ni 5.28027967 3.51735041 1.75547393
Ni 5.28188638 5.27609926 10.55834488
Ni 3.51947425 3.52138496 3.52184190
Ni 3.52008524 5.27149853 5.27899554
Ni 5.27654286 3.51926634 5.28410744
Ni 5.28328894 5.28067850 3.52203245
Ni 3.51350025 3.52057233 7.04254194
Ni 3.51684070 5.28147034 8.79824853
Ni 5.28412345 3.52447044 8.79759267
Ni 5.28609800 5.27892988 7.04867509
Ni 3.51775755 7.04001107 0.00078468
Ni 3.51664999 8.79237730 1.75646160
Ni 5.28446218 7.03833950 1.75847877
Ni 5.28632753 8.80184708 0.00287223
Ni 3.52347847 7.03586626 3.52040674
Ni 3.52049441 8.79906265 5.27521050
Ni 5.28183412 7.03266319 5.27587736
Ni 5.27639927 8.79798310 3.52346415
Ni 3.52692654 7.04709074 7.04331619
Ni 3.52173358 8.78977039 8.80470054
Ni 5.29107388 7.04167388 8.80087434
Ni 5.28283468 8.80285126 7.04045128
Ni 7.03825814 0.00128525 10.55402115
Ni 7.03181831 1.76554921 1.75791983
Ni 8.80290885 0.00637548 1.76508229
Ni 8.79749267 1.76112577 10.55489896
Ni 7.03940740 0.00420354 3.52001138
Ni 7.02768642 1.75013450 5.27645289
Ni 8.80554520 0.00059194 5.28047731
Ni 8.79423732 1.76036662 3.51016672
Ni 7.04131516 0.00477500 7.03638600
Ni 7.04448180 1.75666780 8.80050390
Ni 8.79927414 0.00014266 8.80639060
Ni 8.80361586 1.75684732 7.02807431
Ni 7.04367327 3.52300206 0.00058167
Ni 7.03747249 5.28656321 1.75224715
Ni 8.79650626 3.51348436 1.76146029
Ni 8.79786292 5.28875278 10.55994969
Ni 7.03883358 3.52218702 3.51674976
Ni 7.03522828 5.28202255 5.27778898
Ni 8.80401763 3.52116932 5.28036947
Ni 8.80014567 5.27937143 3.52161293
Ni 7.03816051 3.51138386 7.04020598
Ni 7.03788985 5.27386356 8.80320776
Ni 8.79823175 3.51229141 8.79955594
Ni 8.79697324 5.27247739 7.04120736
Ni 7.03537036 7.04280870 10.55604335
Ni 7.04402495 8.80155854 1.76033872
Ni 8.79662552 7.04360291 1.76202363
Ni 8.79830597 8.80221851 10.55549736
Ni 7.03439282 7.03933460 3.52017818
Ni 7.04168039 8.80001966 5.28517001
Ni 8.79434586 7.04216625 5.28083867
Ni 8.80564140 8.80027484 3.52122533
Ni 7.04737049 7.04313914 7.04247256
Ni 7.03818819 8.80033588 8.79282155
Ni 8.79625271 7.04250273 8.79228252
Ni 8.80025151 8.79982011 7.04153599
108
Step=20 Lattice="10.56 0 0  0 10.56 0  0 0 10.56" Properties=species:S:1:pos:R:3
Ni 10.55554336 10.55813544 0.00548086
Ni 0.00069821 1.76374264 1.76238471
Ni 1.75707932 0.00209682 1.75849325
Ni 1.75844578 1.76015971 10.55322964
Ni 0.00504127 10.55681577 3.52422451
Ni 0.00044441 1.76640461 5.27699803
Ni 1.75849259 0.00120726 5.27026472
Ni 1.76345766 1.76644687 3.52477529
Ni 0.00313711 10.55910026 7.04545395
Ni 0.00452581 1.76144459 8.79989498
Ni 1.75827797 10.55438075 8.80521262
Ni 1.75039633 1.75812417 7.04058847
Ni 0.00359270 3.52740442 0.00419830
Ni 10.55857915 5.28290499 1.75438059
Ni 1.76607738 3.51905643 1.75693816
Ni 1.75706977 5.27946905 10.55816223
Ni 0.00981816 3.51660965 3.52001229
Ni 10.55997152 5.27985999 5.28011398
Ni 1.75775525 3.51719536 5.27612114
Ni 1.75337238 5.28067794 3.52415646
Ni 10.55748665 3.51730358 7.03849567
Ni 10.55784253 5.27348262 8.80581626
Ni 1.76176118 3.51663798 8.80116510
Ni 1.75794216 5.27881360 7.04145770
Ni 0.00399715 7.04635218 0.00728931
Ni 10.55876752 8.79756150 1.76030419
Ni 1.76041091 7.03653795 1.75717113
Ni 1.76339220 8.80688290 10.55888746
Ni 10.55703031 7.03850120 3.51554125
Ni 10.55866418 8.80157411 5.27952034
Ni 1.76522531 7.04039368 5.28196787
Ni 1.75920279 8.80546137 3.51454952
Ni 10.55852718 7.03462526 7.04347017
Ni 0.00355049 8.79749087 8.80709175
Ni 1.75855683 7.03371219 8.79864958
Ni 1.76141820 8.79871678 7.04973415
Ni 3.52357610 0.00727118 0.00590362
Ni 3.51251130 1.75809272 1.74799722
Ni 5.27703629 0.00458937 1.75620270
Ni 5.27708010 1.76115724 0.00329655
Ni 3.51829998 10.55862240 3.52339066
Ni 3.52095490 1.75849494 5.28124267
Ni 5.28017990 0.00084275 5.28858443
Ni 5.27851773 1.75738704 3.52602535
Ni 3.51677593 0.00722267 7.03903049
Ni 3.52017387 1.76292982 8.80515269
Ni 5.28418943 10.55885014 8.79827551
Ni 5.28136165 1.76032228 7.03708031
Ni 3.52164028 3.52406507 0.00059581
Ni 3.52665992 5.28152106 1.75919343
Ni 5.28028521 3.51729742 1.75538345
Ni 5.28192406 5.27602126 10.55831174
Ni 3.51946378 3.52141266 3.52187868
Ni 3.52008695 5.27132852 5.27897554
Ni 5.27647371 3.51925169 5.28418963
Ni 5.28335472 5.28069196 3.52207305
Ni 3.51337023 3.52058374 7.04259282
Ni 3.51677755 5.28149978 8.79821348
Ni 5.28420590 3.52455977 8.79754454
Ni 5.28621996 5.27890850 7.04884857
Ni 3.51771277 7.04001122 0.00080036
Ni 3.51658303 8.79222486 1.75639083
Ni 5.28455143 7.03830633 1.75844829
Ni 5.28645407 8.80188403 0.00292968
Ni 3.52354800 7.03578352 3.52041485
Ni 3.52050428 8.79904390 5.27511475
Ni 5.28187082 7.03251647 5.27579500
Ni 5.27632727 8.79794281 3.52353341
Ni 3.52706515 7.04723250 7.04338249
Ni 3.52176836 8.78956587 8.80479462
Ni 5.29129534 7.04170734 8.80089185
Ni 5.28289134 8.80290829 7.04046030
Ni 7.03822331 0.00131096 10.55390163
Ni 7.03165463 1.76566017 1.75787820
Ni 8.80296700 0.00650299 1.76518390
Ni 8.79744257 1.76114826 10.55479699
Ni 7.03939553 0.00428752 3.52001159
Ni 7.02744025 1.74993726 5.27638190
Ni 8.80565614 0.00060381 5.28048681
Ni 8.79412207 1.76037397 3.50997015
Ni 7.04134155 0.00487052 7.03631375
Ni 7.04457141 1.75660115 8.80051396
Ni 8.79925966 0.00014554 8.80651834
Ni 8.80368820 1.75678422 7.02783581
Ni 7.04374675 3.52306210 0.00059330
Ni 7.03742198 5.28669447 1.75209210
Ni 8.79643640 3.51335413 1.76148949
Ni 8.79782019 5.28892787 10.55994864
Ni 7.03881020 3.52223080 3.51668477
Ni 7.03513287 5.28206293 5.27774482
Ni 8.80409790 3.52119267 5.28037676
Ni 8.80014858 5.27935882 3.52164513
Ni 7.03812379 3.51121147 7.04021004
Ni 7.03784773 5.27374081 8.80327193
Ni 8.79819642 3.51213721 8.79954706
Ni 8.79691267 5.27232689 7.04123151
Ni 7.03527781 7.04286494 10.55596418
Ni 7.04410548 8.80158979 1.76034552
Ni 8.79655796 7.04367498 1.76206409
Ni 8.79827204 8.80226285 10.55540731
Ni 7.03428072 7.03932135 3.52018173
Ni 7.04171400 8.80002009 5.28527338
Ni 8.79423279 7.04220954 5.28085545
Ni 8.80575418 8.80028037 3.52124985
Ni 7.04751787 7.04320188 7.04252199
Ni 7.03815196 8.80034267 8.79267796
Ni 8.79617779 7.04255278 8.79212822
Ni 8.80025661 8.79981662 7.04156673
108
Step=40 Lattice="10.56 0 0  0 10.56 0  0 0 10.56" Properties=species:S:1:pos:R:3
Ni 10.55545594 10.55809892 0.00558837
Ni 0.00071199 1.76381604 1.76243145
Ni 1.75702203 0.00213798 1.75846369
Ni 1.75841524 1.76016285 10.55309690
Ni 0.00514012 10.55675342 3.52430727
Ni 0.00045311 1.76653013 5.27693910
Ni 1.75846301 0.00123094 5.27007394
Ni 1.76352554 1.76657324 3.52486883
Ni 0.00319864 10.55908259 7.04556091
Ni 0.00461451 1.76147290 8.79989295
Ni 1.75824428 10.55427059 8.80531489
Ni 1.75020807 1.75808737 7.04060001
Ni 0.00366308 3.52754956 0.00428066
Ni 10.55855122 5.28296191 1.75427044
Ni 1.76619658 3.51903800 1.75687810
Ni 1.75701237 5.27945865 10.55812619
Ni 0.01001060 3.51654321 3.52001245
Ni 10.55997092 5.27985728 5.28011624
Ni 1.75771126 3.51714036 5.27604517
Ni 1.75324245 5.28069125 3.52423790
Ni 10.55743738 3.51725071 7.03846621
Ni 10.55780013 5.27335481 8.80593033
Ni 1.76179569 3.51657208 8.80118792
Ni 1.75790181 5.27879031 7.04148628
Ni 0.00407546 7.04647677 0.00743218
Ni 10.55874335 8.79751373 1.76031011
Ni 1.76041900 7.03647003 1.75711568
Ni 1.76345874 8.80701784 10.55886569
Ni 10.55697210 7.03847180 3.51545387
Ni 10.55863805 8.80160491 5.27951101
Ni 1.76532776 7.04040144 5.28200648
Ni 1.75918715 8.80556835 3.51444261
Ni 10.55849825 7.03451984 7.04353821
Ni 0.00362005 8.79744166 8.80723082
Ni 1.75852852 7.03358886 8.79862315
Ni 1.76144601 8.79869165 7.04992497
Ni 3.52364625 0.00741367 0.00601928
Ni 3.51236445 1.75805538 1.74776199
Ni 5.27697817 0.00467931 1.75612831
Ni 5.27702289 1.76118000 0.00336106
Ni 3.51826667 10.55859541 3.52345702
Ni 3.52097356 1.75846546 5.28126708
Ni 5.28018335 0.00085919 5.28875273
Ni 5.27848852 1.75733583 3.52614343
Ni 3.51671262 0.00736425 7.03901159
Ni 3.52017733 1.76298726 8.80525368
Ni 5.28427150 10.55882762 8.79824165
Ni 5.28138828 1.76032861 7.03702320
Ni 3.52167247 3.52414483 0.00060743
Ni 3.52679051 5.28155086 1.75917761
Ni 5.28029074 3.51724444 1.75529298
Ni 5.28196174 5.27594327 10.55827859
Ni 3.51945332 3.52144035 3.52191544
Ni 3.52008866 5.27115851 5.27895555
Ni 5.27640455 3.51923703 5.28427182
Ni 5.28342049 5.28070542 3.52211364
Ni 3.51324021 3.52059515 7.04264370
Ni 3.51671441 5.28152922 8.79817844
Ni 5.28428834 3.52464910 8.79749641
Ni 5.28634193 5.27888711 7.04902205
Ni 3.51766799 7.04001137 0.00081603
Ni 3.51651606 8.79207243 1.75632006
Ni 5.28464068 7.03827317 1.75841782
Ni 5.28658061 8.80192097 0.00298712
Ni 3.52361753 7.03570078 3.52042296
Ni 3.52051415 8.79902515 5.27501901
Ni 5.28190751 7.03236975 5.27571265
Ni 5.27625527 8.79790253 3.52360265
Ni 3.52720375 7.04737425 7.04344879
Ni 3.52180314 8.78936136 8.80488870
Ni 5.29151680 7.04174080 8.80090936
Ni 5.28294799 8.80296532 7.04046931
Ni 7.03818848 0.00133668 10.55378212
Ni 7.03149096 1.76577111 1.75783657
Ni 8.80302514 0.00663048 1.76528551
Ni 8.79739247 1.76117075 10.55469503
Ni 7.03938366 0.00437150 3.52001181
Ni 7.02719408 1.74974005 5.27631091
Ni 8.80576707 0.00061568 5.28049632
Ni 8.79400683 1.76038133 3.50977359
Ni 7.04136795 0.00496604 7.03624150
Ni 7.04466102 1.75653450 8.80052402
Ni 8.79924518 0.00014842 8.80664607
Ni 8.80376053 1.75672112 7.02759731
Ni 7.04382022 3.52312214 0.00060493
Ni 7.03737147 5.28682572 1.75193707
Ni 8.79636654 3.51322390 1.76151869
Ni 8.79777746 5.28910296 10.55994760
Ni 7.03878683 3.52227458 3.51661979
Ni 7.03503748 5.28210330 5.27770066
Ni 8.80417816 3.52121602 5.28038405
Ni 8.80015148 5.27934621 3.52167734
Ni 7.03808707 3.51103909 7.04021410
Ni 7.03780563 5.27361807 8.80333609
Ni 8.79816109 3.51198301 8.79953818
Ni 8.79685210 5.27217639 7.04125566
Ni 7.03518526 7.04292117 10.55588501
Ni 7.04418600 8.80162104 1.76035232
Ni 8.79649040 7.04374705 1.76210454
Ni 8.79823811 8.80230719 10.55531727
Ni 7.03416863 7.03930810 3.52018528
Ni 7.04174760 8.80002052 5.28537674
Ni 8.79411973 7.04225283 5.28087224
Ni 8.80586696 8.80028589 3.52127438
Ni 7.04766524 7.04326461 7.04257143
Ni 7.03811573 8.80034947 8.79253437
Ni 8.79610287 7.04260281 8.79197394
Ni 8.80026171 8.79981313 7.04159747
108
Step=60 Lattice="10.56 0 0  0 10.56 0  0 0 10.56" Properties=species:S:1:pos:R:3
Ni 10.55536852 10.55806240 0.00569588
Ni 0.00072577 1.76388944 1.76247819
Ni 1.75696475 0.00217915 1.75843414
Ni 1.75838470 1.76016600 10.55296416
Ni 0.00523896 10.55669107 3.52439002
Ni 0.00046182 1.76665565 5.27688018
Ni 1.75843343 0.00125462 5.26988316
Ni 1.76359342 1.76669961 3.52496236
Ni 0.00326016 10.55906493 7.04566786
Ni 0.00470319 1.76150120 8.79989092
Ni 1.75821060 10.55416044 8.80541715
Ni 1.75001982 1.75805057 7.04061155
Ni 0.00373345 3.52769470 0.00436302
Ni 10.55852328 5.28301883 1.75416029
Ni 1.76631578 3.51901957 1.75681804
Ni 1.75695497 5.27944825 10.55809016
Ni 0.01020303 3.51647677 3.52001260
Ni 10.55997032 5.27985458 5.28011850
Ni 1.75766728 3.51708537 5.27596921
Ni 1.75311253 5.28070456 3.52431933
Ni 10.55738812 3.51719785 7.03843675
Ni 10.55775773 5.27322702 8.80604439
Ni 1.76183019 3.51650618 8.80121074
Ni 1.75786146 5.27876702 7.04151486
Ni 0.00415376 7.04660135 0.00757505
Ni 10.55871918 8.79746596 1.76031603
Ni 1.76042710 7.03640210 1.75706024
Ni 1.76352528 8.80715278 10.55884392
Ni 10.55691390 7.03844240 3.51536649
Ni 10.55861193 8.80163571 5.27950169
Ni 1.76543020 7.04040920 5.28204509
Ni 1.75917152 8.80567532 3.51433569
Ni 10.55846932 7.03441443 7.04360625
Ni 0.00368960 8.79739245 8.80736989
Ni 1.75850020 7.03346554 8.79859672
Ni 1.76147382 8.79866652 7.05011578
Ni 3.52371640 0.00755615 0.00613494
Ni 3.51221761 1.75801803 1.74752678
Ni 5.27692005 0.00476925 1.75605392
Ni 5.27696570 1.76120275 0.00342556
Ni 3.51823336 10.55856842 3.52352338
Ni 3.52099222 1.75843599 5.28129149
Ni 5.28018680 0.00087562 5.28892103
Ni 5.27845930 1.75728463 3.52626150
Ni 3.51664932 0.00750582 7.03899269
Ni 3.52018079 1.76304470 8.80535467
Ni 5.28435356 10.55880510 8.79820779
Ni 5.28141490 1.76033494 7.03696609
Ni 3.52170466 3.52422459 0.00061905
Ni 3.52692109 5.28158066 1.75916180
Ni 5.28029627 3.51719145 1.75520251
Ni 5.28199942 5.27586528 10.55824545
Ni 3.51944286 3.52146805 3.52195221
Ni 3.52009036 5.27098852 5.27893556
Ni 5.27633540 3.51922238 5.28435401
Ni 5.28348627 5.28071887 3.52215422
Ni 3.51311020 3.52060656 7.04269458
Ni 3.51665127 5.28155866 8.79814339
Ni 5.28437077 3.52473841 8.79744828
Ni 5.28646388 5.27886573 7.04919552
Ni 3.51762322 7.04001151 0.00083170
Ni 3.51644911 8.79192000 1.75624929
Ni 5.28472992 7.03824001 1.75838735
Ni 5.28670714 8.80195791 0.00304456
Ni 3.52368705 7.03561805 3.52043107
Ni 3.52052402 8.79900640 5.27492328
Ni 5.28194420 7.03222304 5.27563031
Ni 5.27618327 8.79786225 3.52367190
Ni 3.52734236 7.04751599 7.04351509
Ni 3.52183793 8.78915687 8.80498279
Ni 5.29173825 7.04177426 8.80092687
Ni 5.28300464 8.80302235 7.04047832
Ni 7.03815365 0.00136239 10.55366262
Ni 7.03132729 1.76588205 1.75779494
Ni 8.80308327 0.00675797 1.76538710
Ni 8.79734237 1.76119324 10.55459308
Ni 7.03937178 0.00445547 3.52001202
Ni 7.02694793 1.74954284 5.27623992
Ni 8.80587800 0.00062755 5.28050582
Ni 8.79389159 1.76038869 3.50957705
Ni 7.04139435 0.00506155 7.03616925
Ni 7.04475062 1.75646785 8.80053407
Ni 8.79923071 0.00015129 8.80677380
Ni 8.80383287 1.75665803 7.02735882
Ni 7.04389370 3.52318217 0.00061656
Ni 7.03732097 5.28695696 1.75178203
Ni 8.79629669 3.51309369 1.76154789
Ni 8.79773473 5.28927805 10.55994655
Ni 7.03876346 3.52231837 3.51655480
Ni 7.03494208 5.28214366 5.27765651
Ni 8.80425841 3.52123936 5.28039133
Ni 8.80015438 5.27933359 3.52170954
Ni 7.03805036 3.51086670 7.04021815
Ni 7.03776353 5.27349533 8.80340026
Ni 8.79812576 3.51182882 8.79952930
Ni 8.79679153 5.27202589 7.04127981
Ni 7.03509271 7.04297740 10.55580584
Ni 7.04426653 8.80165229 1.76035912
Ni 8.79642283 7.04381912 1.76214500
Ni 8.79820418 8.80235153 10.55522722
Ni 7.03405655 7.03929486 3.52018883
Ni 7.04178121 8.80002096 5.28548010
Ni 8.79400667 7.04229612 5.28088903
Ni 8.80597973 8.80029142 3.52129891
Ni 7.04781260 7.04332733 7.04262086
Ni 7.03807951 8.80035626 8.79239078
Ni 8.79602795 7.04265285 8.79181966
Ni 8.80026682 8.79980965 7.04162821
108
Step=80 Lattice="10.56 0 0  0 10.56 0  0 0 10.56" Properties=species:S:1:pos:R:3
Ni 10.55528110 10.55802588 0.00580338
Ni 0.00073956 1.76396284 1.76252493
Ni 1.75690746 0.00222032 1.75840459
Ni 1.75835415 1.76016915 10.55283143
Ni 0.00533780 10.55662873 3.52447276
Ni 0.00047052 1.76678117 5.27682125
Ni 1.75840385 0.00127830 5.26969240
Ni 1.76366130 1.76682597 3.52505588
Ni 0.00332167 10.55904726 7.04577481
Ni 0.00479187 1.76152950 8.79988889
Ni 1.75817693 10.55405029 8.80551941
Ni 1.74983158 1.75801377 7.04062309
Ni 0.00380381 3.52783982 0.00444537
Ni 10.55849534 5.28307574 1.75405016
Ni 1.76643499 3.51900114 1.75675799
Ni 1.75689757 5.27943785 10.55805413
Ni 0.01039544 3.51641033 3.52001274
Ni 10.55996972 5.27985188 5.28012076
Ni 1.75762330 3.51703038 5.27589326
Ni 1.75298261 5.28071787 3.52440076
Ni 10.55733886 3.51714499 7.03840730
Ni 10.55771533 5.27309922 8.80615844
Ni 1.76186469 3.51644029 8.80123356
Ni 1.75782111 5.27874373 7.04154344
Ni 0.00423206 7.04672592 0.00771790
Ni 10.55869502 8.79741819 1.76032195
Ni 1.76043520 7.03633418 1.75700480
Ni 1.76359182 8.80728771 10.55882215
Ni 10.55685570 7.03841299 3.51527912
Ni 10.55858581 8.80166650 5.27949237
Ni 1.76553264 7.04041696 5.28208370
Ni 1.75915588 8.80578228 3.51422878
Ni 10.55844039 7.03430902 7.04367429
Ni 0.00375914 8.79734324 8.80750895
Ni 1.75847189 7.03334222 8.79857030
Ni 1.76150164 8.79864140 7.05030657
Ni 3.52378655 0.00769862 0.00625059
Ni 3.51207077 1.75798069 1.74729158
Ni 5.27686193 0.00485918 1.75597955
Ni 5.27690851 1.76122552 0.00349005
Ni 3.51820006 10.55854143 3.52358972
Ni 3.52101088 1.75840652 5.28131591
Ni 5.28019024 0.00089205 5.28908932
Ni 5.27843007 1.75723344 3.52637956
Ni 3.51658601 0.00764739 7.03897379
Ni 3.52018426 1.76310214 8.80545565
Ni 5.28443562 10.55878258 8.79817393
Ni 5.28144152 1.76034127 7.03690900
Ni 3.52173685 3.52430434 0.00063067
Ni 3.52705166 5.28161045 1.75914599
Ni 5.28030180 3.51713847 1.75511205
Ni 5.28203709 5.27578729 10.55821230
Ni 3.51943240 3.52149574 3.52198897
Ni 3.52009207 5.27081853 5.27891558
Ni 5.27626625 3.51920773 5.28443619
Ni 5.28355204 5.28073232 3.52219480
Ni 3.51298019 3.52061796 7.04274546
Ni 3.51658813 5.28158811 8.79810835
Ni 5.28445320 3.52482772 8.79740016
Ni 5.28658583 5.27884435 7.04936898
Ni 3.51757846 7.04001164 0.00084736
Ni 3.51638215 8.79176759 1.75617853
Ni 5.28481916 7.03820686 1.75835687
Ni 5.28683366 8.80199485 0.00310200
Ni 3.52375657 7.03553531 3.52043918
Ni 3.52053389 8.79898766 5.27482755
Ni 5.28198089 7.03207634 5.27554798
Ni 5.27611128 8.79782198 3.52374114
Ni 3.52748096 7.04765772 7.04358139
Ni 3.52187272 8.78895238 8.80507687
Ni 5.29195969 7.04180772 8.80094438
Ni 5.28306128 8.80307937 7.04048734
Ni 7.03811882 0.00138811 10.55354312
Ni 7.03116363 1.76599298 1.75775331
Ni 8.80314141 0.00688546 1.76548869
Ni 8.79729228 1.76121573 10.55449113
Ni 7.03935991 0.00453943 3.52001224
Ni 7.02670180 1.74934564 5.27616893
Ni 8.80598893 0.00063943 5.28051532
Ni 8.79377636 1.76039605 3.50938052
Ni 7.04142075 0.00515706 7.03609701
Ni 7.04484021 1.75640120 8.80054413
Ni 8.79921624 0.00015417 8.80690151
Ni 8.80390520 1.75659493 7.02712034
Ni 7.04396717 3.52324221 0.00062819
Ni 7.03727047 5.28708820 1.75162701
Ni 8.79622684 3.51296349 1.76157709
Ni 8.79769200 5.28945313 10.55994550
Ni 7.03874008 3.52236215 3.51648983
Ni 7.03484669 5.28218402 5.27761236
Ni 8.80433865 3.52126270 5.28039860
Ni 8.80015729 5.27932098 3.52174173
Ni 7.03801365 3.51069432 7.04022220
Ni 7.03772144 5.27337259 8.80346442
Ni 8.79809044 3.51167462 8.79952042
Ni 8.79673096 5.27187540 7.04130396
Ni 7.03500018 7.04303364 10.55572666
Ni 7.04434705 8.80168354 1.76036593
Ni 8.79635526 7.04389119 1.76218545
Ni 8.79817025 8.80239587 10.55513718
Ni 7.03394448 7.03928161 3.52019238
Ni 7.04181482 8.80002140 5.28558345
Ni 8.79389362 7.04233941 5.28090581
Ni 8.80609249 8.80029694 3.52132343
Ni 7.04795996 7.04339005 7.04267029
Ni 7.03804329 8.80036307 8.79224720
Ni 8.79595304 7.04270288 8.79166539
Ni 8.80027193 8.79980617 7.04165894
108
Step=100 Lattice="10.56 0 0  0 10.56 0  0 0 10.56" Properties=species:S:1:pos:R:3
Ni 10.55519368 10.55798937 0.00591089
Ni 0.00075335 1.76403624 1.76257167
Ni 1.75685017 0.00226149 1.75837504
Ni 1.75832360 1.76017230 10.55269870
Ni 0.00543664 10.55656639 3.52455550
Ni 0.00047922 1.76690667 5.27676232
Ni 1.75837427 0.00130197 5.26950165
Ni 1.76372918 1.76695233 3.52514939
Ni 0.00338319 10.55902958 7.04588176
Ni 0.00488054 1.76155780 8.79988686
Ni 1.75814326 10.55394015 8.80562168
Ni 1.74964334 1.75797697 7.04063462
Ni 0.00387417 3.52798493 0.00452773
Ni 10.55846740 5.28313265 1.75394003
Ni 1.76655418 3.51898272 1.75669793
Ni 1.75684019 5.27942745 10.55801810
Ni 0.01058785 3.51634391 3.52001288
Ni 10.55996911 5.27984918 5.28012302
Ni 1.75757933 3.51697539 5.27581732
Ni 1.75285270 5.28073118 3.52448217
Ni 10.55728960 3.51709214 7.03837785
Ni 10.55767293 5.27297143 8.80627249
Ni 1.76189919 3.51637440 8.80125638
Ni 1.75778076 5.27872044 7.04157202
Ni 0.00431035 7.04685050 0.00786075
Ni 10.55867086 8.79737043 1.76032787
Ni 1.76044331 7.03626626 1.75694936
Ni 1.76365836 8.80742263 10.55880039
Ni 10.55679750 7.03838359 3.51519176
Ni 10.55855970 8.80169728 5.27948306
Ni 1.76563508 7.04042472 5.28212231
Ni 1.75914025 8.80588922 3.51412187
Ni 10.55841145 7.03420362 7.04374232
Ni 0.00382868 8.79729403 8.80764802
Ni 1.75844358 7.03321890 8.79854388
Ni 1.76152945 8.79861627 7.05049736
Ni 3.52385670 0.00784107 0.00636623
Ni 3.51192393 1.75794336 1.74705640
Ni 5.27680381 0.00494910 1.75590518
Ni 5.27685132 1.76124828 0.00355453
Ni 3.51816676 10.55851444 3.52365605
Ni 3.52102953 1.75837705 5.28134032
Ni 5.28019367 0.00090848 5.28925760
Ni 5.27840084 1.75718224 3.52649761
Ni 3.51652271 0.00778895 7.03895491
Ni 3.52018772 1.76315957 8.80555662
Ni 5.28451767 10.55876007 8.79814008
Ni 5.28146813 1.76034761 7.03685191
Ni 3.52176904 3.52438410 0.00064228
Ni 3.52718224 5.28164025 1.75913018
Ni 5.28030732 3.51708549 1.75502160
Ni 5.28207476 5.27570930 10.55817915
Ni 3.51942195 3.52152343 3.52202572
Ni 3.52009378 5.27064855 5.27889561
Ni 5.27619710 3.51919308 5.28451838
Ni 5.28361781 5.28074576 3.52223537
Ni 3.51285018 3.52062936 7.04279633
Ni 3.51652500 5.28161755 8.79807331
Ni 5.28453563 3.52491701 8.79735204
Ni 5.28670778 5.27882297 7.04954243
Ni 3.51753370 7.04001177 0.00086303
Ni 3.51631520 8.79161517 1.75610776
Ni 5.28490840 7.03817370 1.75832639
Ni 5.28696017 8.80203179 0.00315944
Ni 3.52382609 7.03545257 3.52044728
Ni 3.52054375 8.79896891 5.27473183
Ni 5.28201758 7.03192964 5.27546566
Ni 5.27603930 8.79778171 3.52381037
Ni 3.52761956 7.04779944 7.04364768
Ni 3.52190751 8.78874791 8.80517096
Ni 5.29218112 7.04184117 8.80096189
Ni 5.28311792 8.80313640 7.04049635
Ni 7.03808400 0.00141382 10.55342363
Ni 7.03099997 1.76610391 1.75771167
Ni 8.80319953 0.00701294 1.76559028
Ni 8.79724220 1.76123821 10.55438920
Ni 7.03934804 0.00462338 3.52001245
Ni 7.02645568 1.74914846 5.27609794
Ni 8.80609985 0.00065130 5.28052481
Ni 8.79366113 1.76040341 3.50918400
Ni 7.04144716 0.00525256 7.03602478
Ni 7.04492980 1.75633456 8.80055418
Ni 8.79920177 0.00015705 8.80702921
Ni 8.80397754 1.75653183 7.02688188
Ni 7.04404065 3.52330224 0.00063982
Ni 7.03721997 5.28721943 1.75147199
Ni 8.79615700 3.51283330 1.76160628
Ni 8.79764928 5.28962821 10.55994445
Ni 7.03871671 3.52240593 3.51642485
Ni 7.03475131 5.28222437 5.27756822
Ni 8.80441888 3.52128604 5.28040587
Ni 8.80016019 5.27930836 3.52177392
Ni 7.03797694 3.51052195 7.04022624
Ni 7.03767936 5.27324986 8.80352858
Ni 8.79805512 3.51152044 8.79951154
Ni 8.79667039 5.27172490 7.04132811
Ni 7.03490764 7.04308987 10.55564749
Ni 7.04442757 8.80171480 1.76037273
Ni 8.79628770 7.04396325 1.76222589
Ni 8.79813631 8.80244020 10.55504715
Ni 7.03383241 7.03926838 3.52019592
Ni 7.04184842 8.80002184 5.28568680
Ni 8.79378058 7.04238269 5.28092260
Ni 8.80620525 8.80030247 3.52134796
Ni 7.04810731 7.04345277 7.04271971
Ni 7.03800707 8.80036988 8.79210362
Ni 8.79587813 7.04275291 8.79151113
Ni 8.80027705 8.79980270 7.04168968
108
Step=120 Lattice="10.56 0 0  0 10.56 0  0 0 10.56" Properties=species:S:1:pos:R:3
Ni 10.55510627 10.55795287 0.00601839
Ni 0.00076715 1.76410963 1.76261840
Ni 1.75679289 0.00230266 1.75834549
Ni 1.75829305 1.76017545 10.55256597
Ni 0.00553547 10.55650407 3.52463823
Ni 0.00048792 1.76703216 5.27670339
Ni 1.75834470 0.00132565 5.26931092
Ni 1.76379707 1.76707868 3.52524290
Ni 0.00344471 10.55901191 7.04598870
Ni 0.00496921 1.76158610 8.79988484
Ni 1.75810960 10.55383001 8.80572394
Ni 1.74945512 1.75794017 7.04064616
Ni 0.00394452 3.52813004 0.00461008
Ni 10.55843945 5.28318955 1.75382990
Ni 1.76667338 3.51896431 1.75663788
Ni 1.75678280 5.27941705 10.55798207
Ni 0.01078024 3.51627748 3.52001302
Ni 10.55996850 5.27984649 5.28012528
Ni 1.75753536 3.51692040 5.27574138
Ni 1.75272280 5.28074449 3.52456358
Ni 10.55724034 3.51703928 7.03834840
Ni 10.55763052 5.27284365 8.80638654
Ni 1.76193368 3.51630852 8.80127919
Ni 1.75774042 5.27869715 7.04160060
Ni 0.00438863 7.04697507 0.00800359
Ni 10.55864669 8.79732268 1.76033378
Ni 1.76045141 7.03619833 1.75689393
Ni 1.76372490 8.80755755 10.55877863
Ni 10.55673931 7.03835419 3.51510440
Ni 10.55853359 8.80172806 5.27947376
Ni 1.76573751 7.04043248 5.28216092
Ni 1.75912462 8.80599616 3.51401496
Ni 10.55838252 7.03409821 7.04381036
Ni 0.00389822 8.79724483 8.80778707
Ni 1.75841526 7.03309558 8.79851747
Ni 1.76155726 8.79859115 7.05068814
Ni 3.52392685 0.00798352 0.00648186
Ni 3.51177710 1.75790603 1.74682124
Ni 5.27674570 0.00503902 1.75583082
Ni 5.27679414 1.76127105 0.00361899
Ni 3.51813347 10.55848746 3.52372238
Ni 3.52104818 1.75834759 5.28136474
Ni 5.28019711 0.00092489 5.28942587
Ni 5.27837160 1.75713105 3.52661565
Ni 3.51645940 0.00793050 7.03893603
Ni 3.52019119 1.76321701 8.80565759
Ni 5.28459971 10.55873756 8.79810622
Ni 5.28149474 1.76035394 7.03679484
Ni 3.52180123 3.52446385 0.00065388
Ni 3.52731280 5.28167004 1.75911437
Ni 5.28031284 3.51703252 1.75493115
Ni 5.28211242 5.27563133 10.55814600
Ni 3.51941150 3.52155112 3.52206246
Ni 3.52009549 5.27047858 5.27887564
Ni 5.27612795 3.51917843 5.28460056
Ni 5.28368358 5.28075919 3.52227594
Ni 3.51272018 3.52064076 7.04284721
Ni 3.51646188 5.28164700 8.79803826
Ni 5.28461805 3.52500630 8.79730393
Ni 5.28682973 5.27880159 7.04971587
Ni 3.51748894 7.04001190 0.00087869
Ni 3.51624826 8.79146277 1.75603701
Ni 5.28499764 7.03814056 1.75829592
Ni 5.28708668 8.80206874 0.00321687
Ni 3.52389559 7.03536983 3.52045539
Ni 3.52055362 8.79895016 5.27463612
Ni 5.28205427 7.03178295 5.27538335
Ni 5.27596731 8.79774144 3.52387960
Ni 3.52775816 7.04794115 7.04371396
Ni 3.52194231 8.78854345 8.80526505
Ni 5.29240254 7.04187462 8.80097941
Ni 5.28317456 8.80319342 7.04050535
Ni 7.03804917 0.00143953 10.55330415
Ni 7.03083631 1.76621483 1.75767004
Ni 8.80325766 0.00714041 1.76569186
Ni 8.79719211 1.76126070 10.55428727
Ni 7.03933616 0.00470732 3.52001266
Ni 7.02620958 1.74895129 5.27602695
Ni 8.80621078 0.00066318 5.28053430
Ni 8.79354590 1.76041077 3.50898750
Ni 7.04147358 0.00534807 7.03595255
Ni 7.04501938 1.75626791 8.80056423
Ni 8.79918731 0.00015993 8.80715690
Ni 8.80404987 1.75646873 7.02664342
Ni 7.04411412 3.52336227 0.00065145
Ni 7.03716948 5.28735065 1.75131697
Ni 8.79608716 3.51270311 1.76163547
Ni 8.79760656 5.28980328 10.55994340
Ni 7.03869333 3.52244972 3.51635988
Ni 7.03465594 5.28226472 5.27752408
Ni 8.80449911 3.52130937 5.28041313
Ni 8.80016309 5.27929574 3.52180610
Ni 7.03794025 3.51034957 7.04023029
Ni 7.03763728 5.27312713 8.80359273
Ni 8.79801980 3.51136625 8.79950266
Ni 8.79660982 5.27157441 7.04135226
Ni 7.03481512 7.04314611 10.55556832
Ni 7.04450809 8.80174607 1.76037954
Ni 8.79622013 7.04403531 1.76226634
Ni 8.79810237 8.80248453 10.55495712
Ni 7.03372035 7.03925514 3.52019947
Ni 7.04188203 8.80002228 5.28579013
Ni 8.79366754 7.04242597 5.28093938
Ni 8.80631800 8.80030800 3.52137249
Ni 7.04825465 7.04351548 7.04276913
Ni 7.03797085 8.80037669 8.79196005
Ni 8.79580323 7.04280293 8.79135688
Ni 8.80028217 8.79979924 7.04172042
108
Step=140 Lattice="10.56 0 0  0 10.56 0  0 0 10.56" Properties=species:S:1:pos:R:3
Ni 10.55501886 10.55791636 0.00612590
Ni 0.00078095 1.76418302 1.76266513
Ni 1.75673561 0.00234383 1.75831594
Ni 1.75826249 1.76017860 10.55243325
Ni 0.00563429 10.55644175 3.52472095
Ni 0.00049662 1.76715765 5.27664446
Ni 1.75831512 0.00134932 5.26912020
Ni 1.76386495 1.76720502 3.52533639
Ni 0.00350622 10.55899424 7.04609564
Ni 0.00505786 1.76161439 8.79988282
Ni 1.75807594 10.55371988 8.80582620
Ni 1.74926690 1.75790337 7.04065770
Ni 0.00401486 3.52827514 0.00469243
Ni 10.55841150 5.28324645 1.75371978
Ni 1.76679257 3.51894589 1.75657783
Ni 1.75672543 5.27940666 10.55794604
Ni 0.01097263 3.51621107 3.52001314
Ni 10.55996789 5.27984379 5.28012755
Ni 1.75749139 3.51686541 5.27566546
Ni 1.75259290 5.28075780 3.52464499
Ni 10.55719109 3.51698643 7.03831895
Ni 10.55758811 5.27271587 8.80650059
Ni 1.76196818 3.51624264 8.80130200
Ni 1.75770007 5.27867385 7.04162918
Ni 0.00446691 7.04709963 0.00814642
Ni 10.55862253 8.79727493 1.76033969
Ni 1.76045952 7.03613041 1.75683850
Ni 1.76379143 8.80769246 10.55875687
Ni 10.55668112 7.03832479 3.51501705
Ni 10.55850749 8.80175883 5.27946446
Ni 1.76583994 7.04044024 5.28219953
Ni 1.75910899 8.80610308 3.51390805
Ni 10.55835358 7.03399281 7.04387838
Ni 0.00396775 8.79719562 8.80792612
Ni 1.75838695 7.03297227 8.79849106
Ni 1.76158507 8.79856603 7.05087890
Ni 3.52399700 0.00812595 0.00659747
Ni 3.51163028 1.75786870 1.74658610
Ni 5.27668758 0.00512892 1.75575646
Ni 5.27673696 1.76129382 0.00368345
Ni 3.51810017 10.55846047 3.52378869
Ni 3.52106682 1.75831813 5.28138916
Ni 5.28020053 0.00094130 5.28959414
Ni 5.27834235 1.75707987 3.52673369
Ni 3.51639608 0.00807204 7.03891715
Ni 3.52019466 1.76327444 8.80575855
Ni 5.28468174 10.55871505 8.79807236
Ni 5.28152134 1.76036027 7.03673778
Ni 3.52183342 3.52454361 0.00066548
Ni 3.52744336 5.28169983 1.75909856
Ni 5.28031836 3.51697954 1.75484071
Ni 5.28215008 5.27555335 10.55811285
Ni 3.51940105 3.52157881 3.52209920