108
Step=0 Lattice="10.56 0 0  0 10.56 0  0 0 10.56" Properties=species:S:1:pos:R:3
Ni 0.87127064 0.87635509 0.89073572
Ni 0.88137791 2.64732940 2.64466630
Ni 2.63427935 0.88411185 2.63704978
Ni 2.63694779 2.64031407 0.86674584
Ni 0.88986867 0.87377781 4.40826128
Ni 0.88086821 2.65253115 6.15411393
Ni 2.63704636 0.88236361 6.14095427
Ni 2.64677965 2.65261641 4.40933657
Ni 0.88614285 0.87823404 7.93067943
Ni 0.88885296 2.64282567 9.67979868
Ni 2.63663917 0.86900202 9.69021225
Ni 2.62120365 2.63632475 7.92115150
Ni 0.88702415 4.41448972 0.88822405
Ni 0.87720915 6.16568191 2.62900367
Ni 2.65190336 4.39816171 2.63400343
Ni 2.63427059 6.15896181 0.87640241
Ni 0.89921190 4.39336810 4.40001217
Ni 0.87993923 6.15973125 6.16022647
Ni 2.63560919 4.39450961 6.15241856
Ni 2.62702814 6.16132963 4.40812905
Ni 0.87508158 4.39472291 7.91705967
Ni 0.87576454 6.14723938 9.69138888
Ni 2.64344449 4.39342127 9.68227854
Ni 2.63597066 6.15767398 7.92285296
Ni 0.88781772 7.93243990 0.89426342
Ni 0.87758690 9.67523147 2.64059124
Ni 2.64080936 7.91321713 2.63446539
Ni 2.64664477 9.69347308 0.87782746
Ni 0.87418920 7.91706458 4.39127683
Ni 0.87739403 9.68307190 6.15907176
Ni 2.65022912 7.92077568 6.16385587
Ni 2.63843937 9.69067697 4.38932346
Ni 0.87711057 7.90947426 7.92679318
Ni 0.88694386 9.67508511 9.69388646
Ni 2.63717158 7.90768519 9.67736273
Ni 2.64277756 9.67749095 7.93905093
Ni 4.40700481 0.89422329 0.89154558
Ni 4.38533721 2.63627278 2.61651752
Ni 6.15419658 0.88897865 2.63257569
Ni 6.15429074 2.64227462 0.88643641
Ni 4.39667574 0.87730593 4.40662265
Ni 4.40186204 2.63705815 6.16243919
Ni 6.16034194 0.88163764 6.17680367
Ni 6.15707879 2.63488816 4.41178675
Ni 4.39367716 0.89413498 7.91811472
Ni 4.40034665 2.64573512 9.69008235
Ni 6.16819162 0.87775230 9.67661899
Ni 6.16265605 2.64063318 7.91430153
Ni 4.40321404 4.40796512 0.88115823
Ni 4.41303845 6.16297552 2.63842214
Ni 6.16055081 4.39471015 2.63096889
Ni 6.16376071 6.15221374 0.87668874
Ni 4.39895709 4.40276482 4.40366831
Ni 4.40017047 6.14302668 6.15800717
Ni 6.15309553 4.39853736 6.16820714
Ni 6.16656733 6.16134034 4.40404990
Ni 4.38701765 4.40113731 7.92508056
Ni 4.39369684 6.16294112 9.67650122
Ni 6.16823018 4.40891461 9.67519567
Ni 6.17217721 6.15786599 7.93731988
Ni 4.39553129 7.92001209 0.88156339
Ni 4.39331559 9.66478102 2.63293452
Ni 6.16891056 7.91669034 2.63695664
Ni 6.17263301 9.68368975 0.88573585
Ni 4.40694063 7.91173734 4.40080908
Ni 4.40098477 9.67812821 6.15044299
Ni 6.16366290 7.90535112 6.15178226
Ni 6.15281259 9.67598007 4.40691280
Ni 4.41384160 7.93415056 7.92661845
Ni 4.40347586 9.65958309 9.68939622
Ni 6.18211139 7.92333985 9.68174899
Ni 6.16565546 9.68569427 7.92089848
Ni 7.91652273 0.88256803 0.86806978
Ni 7.90365666 2.65107559 2.63584147
Ni 9.68580375 0.89273030 2.65014337
Ni 9.67499968 2.64224616 0.86982251
Ni 7.91881321 0.88838126 4.40002082
Ni 7.89542496 2.62031149 6.15290998
Ni 9.69107693 0.88118590 6.16094667
Ni 9.66849328 2.64073562 4.38037841
Ni 7.92263871 0.88953679 7.91278758
Ni 7.92894488 2.63334555 9.68100293
Ni 9.67855665 0.88028737 9.69275010
Ni 9.68722262 2.63369850 7.89618698
Ni 7.92733701 4.40599380 0.88116071
Ni 7.91495820 6.17310390 2.62452056
Ni 9.67302602 4.38700130 2.64291408
Ni 9.67573361 6.17748373 0.87989482
Ni 7.91766457 4.40437209 4.39351279
Ni 7.91047614 6.16402809 6.15559360
Ni 9.68800978 4.40232941 6.16072375
Ni 9.68028961 6.15873983 4.40321360
Ni 7.91633562 4.38278563 7.92040229
Ni 7.91580008 6.14774428 9.68640623
Ni 9.67647347 4.38460285 9.67911310
Ni 9.67395064 6.14497141 7.92241164
Ni 7.91076153 7.92561654 0.87209349
Ni 7.92804049 9.68312328 2.64068072
Ni 9.67325204 7.92719682 2.64403896
Ni 9.67661001 9.68442644 0.87100994
Ni 7.90881004 7.91867917 4.40035394
Ni 7.92335534 9.68004484 6.17031872
Ni 9.66871234 7.92432104 6.16167594
Ni 9.69125826 9.68055258 4.40244969
Ni 7.93471294 7.92626074 7.92493407
Ni 7.91638449 9.68068147 9.66566253
Ni 9.67252104 7.92499449 9.66459754
Ni 9.68051316 9.67965510 7.92306994
108
Step=20 Lattice="10.56 0 0  0 10.56 0  0 0 10.56" Properties=species:S:1:pos:R:3
Ni 0.87118306 0.87631872 0.89084345
Ni 0.88139200 2.64740291 2.64471299
Ni 2.63422194 0.88415323 2.63702022
Ni 2.63691694 2.64031725 0.86661303
Ni 0.88996753 0.87371579 4.40834383
Ni 0.88087685 2.65265652 6.15405469
Ni 2.63701670 0.88238728 6.14076378
Ni 2.64684787 2.65274270 4.40942981
Ni 0.88620444 0.87821620 7.93078650
Ni 0.88894146 2.64285392 9.67979679
Ni 2.63660577 0.86889189 9.69031478
Ni 2.62101542 2.63628784 7.92116302
Ni 0.88709428 4.41463474 0.88830659
Ni 0.87718095 6.16573871 2.62889362
Ni 2.65202278 4.39814353 2.63394329
Ni 2.63421337 6.15895144 0.87636637
Ni 0.89940417 4.39330181 4.40001196
Ni 0.87993849 6.15972870 6.16022883
Ni 2.63556529 4.39445461 6.15234293
Ni 2.62689824 6.16134302 4.40821029
Ni 0.87503235 4.39467009 7.91703033
Ni 0.87572179 6.14711147 9.69150306
Ni 2.64347892 4.39335543 9.68230132
Ni 2.63593025 6.15765058 7.92288151
Ni 0.88789588 7.93256467 0.89440616
Ni 0.87756271 9.67518383 2.64059707
Ni 2.64081759 7.91314903 2.63441004
Ni 2.64671146 9.69360805 0.87780584
Ni 0.87413106 7.91703515 4.39118958
Ni 0.87736818 9.68310239 6.15906275
Ni 2.65033161 7.92078359 6.16389460
Ni 2.63842375 9.69078355 4.38921631
Ni 0.87708146 7.90936869 7.92686123
Ni 0.88701327 9.67503576 9.69402569
Ni 2.63714314 7.90756165 9.67733648
Ni 2.64280543 9.67746588 7.93924169
Ni 4.40707510 0.89436549 0.89166095
Ni 4.38519021 2.63623561 2.61628263
Ni 6.15413840 0.88906846 2.63250157
Ni 6.15423373 2.64229767 0.88650044
Ni 4.39664254 0.87727902 4.40668862
Ni 4.40188051 2.63702880 6.16246381
Ni 6.16034509 0.88165370 6.17697199
Ni 6.15704900 2.63483703 4.41190461
Ni 4.39361351 0.89427649 7.91809616
Ni 4.40035029 2.64579257 9.69018325
Ni 6.16827343 0.87772987 9.67658499
Ni 6.16268240 2.64063959 7.91424489
Ni 4.40324631 4.40804513 0.88116961
Ni 4.41316912 6.16300529 2.63840638
Ni 6.16055613 4.39465718 2.63087858
Ni 6.16379823 6.15213581 0.87665539
Ni 4.39894683 4.40279250 4.40370480
Ni 4.40017218 6.14285667 6.15798754
Ni 6.15302632 4.39852277 6.16828951
Ni 6.16663313 6.16135339 4.40409024
Ni 4.38688747 4.40114855 7.92513158
Ni 4.39363382 6.16297073 9.67646614
Ni 6.16831254 4.40900359 9.67514761
Ni 6.17229923 6.15784469 7.93749335
Ni 4.39548675 7.92001194 0.88157895
Ni 4.39324875 9.66462858 2.63286374
Ni 6.16899984 7.91665734 2.63692601
Ni 6.17275954 9.68372678 0.88579335
Ni 4.40701003 7.91165433 4.40081710
Ni 4.40099457 9.67810946 6.15034742
Ni 6.16369959 7.90520437 6.15170032
Ni 6.15274066 9.67594000 4.40698194
Ni 4.41398058 7.93429213 7.92668467
Ni 4.40351106 9.65937877 9.68949064
Ni 6.18233293 7.92337324 9.68176660
Ni 6.16571201 9.68575134 7.92090739
Ni 7.91648792 0.88259381 0.86795047
Ni 7.90349274 2.65118642 2.63579966
Ni 9.68586177 0.89285786 2.65024487
Ni 9.67494976 2.64226864 0.86972077
Ni 7.91880121 0.88846491 4.40002097
Ni 7.89517906 2.62011451 6.15283874
Ni 9.69118803 0.88119787 6.16095597
Ni 9.66837798 2.64074309 4.38018217
Ni 7.92266548 0.88963240 7.91271543
Ni 7.92903438 2.63327887 9.68101288
Ni 9.67854236 0.88029031 9.69287756
Ni 9.68729504 2.63363520 7.89594837
Ni 7.92741058 4.40605383 0.88117232
Ni 7.91490781 6.17323515 2.62436549
Ni 9.67295621 4.38687137 2.64294321
Ni 9.67569088 6.17765909 0.87989365
Ni 7.91764099 4.40441602 4.39344788
Ni 7.91038083 6.16406817 6.15554969
Ni 9.68808969 4.40235260 6.16073063
Ni 9.68029248 6.15872707 4.40324562
Ni 7.91629912 4.38261288 7.92040607
Ni 7.91575837 6.14762142 9.68647043
Ni 9.67643824 4.38444845 9.67910420
Ni 9.67388987 6.14482062 7.92243583
Ni 7.91066914 7.92567303 0.87201412
Ni 7.92812114 9.68315488 2.64068767
Ni 9.67318417 7.92726901 2.64407939
Ni 9.67657583 9.68447070 0.87091990
Ni 7.90869809 7.91866615 4.40035743
Ni 7.92338895 9.68004544 6.17042197
Ni 9.66859932 7.92436421 6.16169275
Ni 9.69137088 9.68055822 4.40247432
Ni 7.93486024 7.92632325 7.92498340
Ni 7.91634835 9.68068859 9.66551878
Ni 9.67244621 7.92504444 9.66444343
Ni 9.68051861 9.67965202 7.92310078
108
Step=40 Lattice="10.56 0 0  0 10.56 0  0 0 10.56" Properties=species:S:1:pos:R:3
Ni 0.87109547 0.87628235 0.89095118
Ni 0.88140610 2.64747642 2.64475968
Ni 2.63416455 0.88419462 2.63699066
Ni 2.63688608 2.64032042 0.86648023
Ni 0.89006638 0.87365379 4.40842637
Ni 0.88088549 2.65278187 6.15399544
Ni 2.63698705 0.88241096 6.14057331
Ni 2.64691609 2.65286897 4.40952303
Ni 0.88626602 0.87819836 7.93089357
Ni 0.88902995 2.64288217 9.67979491
Ni 2.63657238 0.86878177 9.69041731
Ni 2.62082721 2.63625093 7.92117453
Ni 0.88716439 4.41477975 0.88838913
Ni 0.87715275 6.16579549 2.62878359
Ni 2.65214221 4.39812536 2.63388316
Ni 2.63415617 6.15894107 0.87633033
Ni 0.89959641 4.39323553 4.40001175
Ni 0.87993775 6.15972616 6.16023120
Ni 2.63552140 4.39439963 6.15226731
Ni 2.62676836 6.16135642 4.40829151
Ni 0.87498313 4.39461728 7.91700100
Ni 0.87567904 6.14698357 9.69161723
Ni 2.64351334 4.39328961 9.68232410
Ni 2.63588985 6.15762718 7.92291005
Ni 0.88797402 7.93268943 0.89454888
Ni 0.87753852 9.67513619 2.64060290
Ni 2.64082583 7.91308093 2.63435470
Ni 2.64677815 9.69374301 0.87778423
Ni 0.87407292 7.91700572 4.39110233
Ni 0.87734233 9.68313288 6.15905376
Ni 2.65043410 7.92079150 6.16393332
Ni 2.63840812 9.69089011 4.38910917
Ni 0.87705236 7.90926313 7.92692927
Ni 0.88708267 9.67498642 9.69416491
Ni 2.63711469 7.90743812 9.67731023
Ni 2.64283329 9.67744081 7.93943242
Ni 4.40714538 0.89450767 0.89177629
Ni 4.38504323 2.63619845 2.61604776
Ni 6.15408021 0.88915826 2.63242747
Ni 6.15417673 2.64232072 0.88656445
Ni 4.39660935 0.87725212 4.40675457
Ni 4.40189898 2.63699945 6.16248843
Ni 6.16034823 0.88166975 6.17714030
Ni 6.15701921 2.63478590 4.41202244
Ni 4.39354985 0.89441798 7.91807760
Ni 4.40035393 2.64585001 9.69028413
Ni 6.16835522 0.87770744 9.67655099
Ni 6.16270874 2.64064601 7.91418826
Ni 4.40327858 4.40812513 0.88118098
Ni 4.41329977 6.16303505 2.63839062
Ni 6.16056145 4.39460421 2.63078829
Ni 6.16383575 6.15205789 0.87662203
Ni 4.39893657 4.40282018 4.40374128
Ni 4.40017390 6.14268668 6.15796793
Ni 6.15295713 4.39850818 6.16837188
Ni 6.16669892 6.16136643 4.40413057
Ni 4.38675731 4.40115978 7.92518260
Ni 4.39357082 6.16300034 9.67643107
Ni 6.16839490 4.40909256 9.67509955
Ni 6.17242125 6.15782340 7.93766681
Ni 4.39544222 7.92001179 0.88159451
Ni 4.39318192 9.66447616 2.63279297
Ni 6.16908912 7.91662434 2.63689538
Ni 6.17288606 9.68376380 0.88585084
Ni 4.40707943 7.91157132 4.40082512
Ni 4.40100437 9.67809071 6.15025187
Ni 6.16373628 7.90505763 6.15161840
Ni 6.15266873 9.67589993 4.40705108
Ni 4.41411955 7.93443367 7.92675087
Ni 4.40354626 9.65917447 9.68958506
Ni 6.18255444 7.92340662 9.68178421
Ni 6.16576854 9.68580841 7.92091630
Ni 7.91645311 0.88261959 0.86783118
Ni 7.90332883 2.65129724 2.63575784
Ni 9.68591979 0.89298541 2.65034637
Ni 9.67489984 2.64229112 0.86961904
Ni 7.91878921 0.88854853 4.40002112
Ni 7.89493319 2.61991756 6.15276750
Ni 9.69129912 0.88120985 6.16096526
Ni 9.66826269 2.64075056 4.37998595
Ni 7.92269227 0.88972799 7.91264328
Ni 7.92912386 2.63321219 9.68102282
Ni 9.67852808 0.88029325 9.69300500
Ni 9.68736746 2.63357190 7.89570979
Ni 7.92748416 4.40611384 0.88118392
Ni 7.91485743 6.17336639 2.62421045
Ni 9.67288641 4.38674147 2.64297234
Ni 9.67564816 6.17783444 0.87989248
Ni 7.91761741 4.40445995 4.39338298
Ni 7.91028554 6.16410824 6.15550579
Ni 9.68816958 4.40237579 6.16073749
Ni 9.68029535 6.15871432 4.40327762
Ni 7.91626264 4.38244014 7.92040984
Ni 7.91571669 6.14749857 9.68653463
Ni 9.67640303 4.38429406 9.67909530
Ni 9.67382910 6.14466984 7.92246002
Ni 7.91057676 7.92572953 0.87193474
Ni 7.92820178 9.68318649 2.64069463
Ni 9.67311631 7.92734119 2.64411981
Ni 9.67654166 9.68451495 0.87082986
Ni 7.90858615 7.91865313 4.40036092
Ni 7.92342256 9.68004605 6.17052521
Ni 9.66848630 7.92440737 6.16170957
Ni 9.69148349 9.68056386 4.40249894
Ni 7.93500752 7.92638575 7.92503273
Ni 7.91631221 9.68069573 9.66537504
Ni 9.67237139 7.92509438 9.66428933
Ni 9.68052407 9.67964896 7.92313162
108
Step=60 Lattice="10.56 0 0  0 10.56 0  0 0 10.56" Properties=species:S:1:pos:R:3
Ni 0.87100789 0.87624599 0.89105890
Ni 0.88142021 2.64754992 2.64480636
Ni 2.63410715 0.88423601 2.63696111
Ni 2.63685522 2.64032360 0.86634743
Ni 0.89016522 0.87359180 4.40850890
Ni 0.88089413 2.65290720 6.15393620
Ni 2.63695739 0.88243463 6.14038287
Ni 2.64698432 2.65299523 4.40961623
Ni 0.88632760 0.87818052 7.93100062
Ni 0.88911842 2.64291041 9.67979303
Ni 2.63653901 0.86867167 9.69051983
Ni 2.62063901 2.63621402 7.92118603
Ni 0.88723450 4.41492474 0.88847166
Ni 0.87712453 6.16585227 2.62867356
Ni 2.65226162 4.39810720 2.63382302
Ni 2.63409898 6.15893071 0.87629430
Ni 0.89978863 4.39316925 4.40001152
Ni 0.87993701 6.15972362 6.16023357
Ni 2.63547751 4.39434465 6.15219172
Ni 2.62663849 6.16136981 4.40837273
Ni 0.87493391 4.39456447 7.91697167
Ni 0.87563628 6.14685568 9.69173139
Ni 2.64354775 4.39322379 9.68234687
Ni 2.63584945 6.15760378 7.92293860
Ni 0.88805216 7.93281418 0.89469159
Ni 0.87751433 9.67508857 2.64060873
Ni 2.64083408 7.91301283 2.63429937
Ni 2.64684483 9.69387796 0.87776262
Ni 0.87401479 7.91697629 4.39101510
Ni 0.87731650 9.68316335 6.15904477
Ni 2.65053658 7.92079941 6.16397205
Ni 2.63839250 9.69099664 4.38900203
Ni 0.87702325 7.90915757 7.92699731
Ni 0.88715206 9.67493708 9.69430412
Ni 2.63708625 7.90731459 9.67728399
Ni 2.64286116 9.67741574 7.93962314
Ni 4.40721565 0.89464982 0.89189162
Ni 4.38489626 2.63616131 2.61581293
Ni 6.15402204 0.88924805 2.63235338
Ni 6.15411973 2.64234378 0.88662844
Ni 4.39657617 0.87722522 4.40682050
Ni 4.40191743 2.63697011 6.16251306
Ni 6.16035136 0.88168579 6.17730860
Ni 6.15698939 2.63473479 4.41214026
Ni 4.39348620 0.89455946 7.91805905
Ni 4.40035758 2.64590745 9.69038500
Ni 6.16843700 0.87768502 9.67651699
Ni 6.16273508 2.64065243 7.91413166
Ni 4.40331084 4.40820514 0.88119235
Ni 4.41343041 6.16306481 2.63837487
Ni 6.16056676 4.39455125 2.63069801
Ni 6.16387326 6.15197998 0.87658868
Ni 4.39892632 4.40284785 4.40377775
Ni 4.40017561 6.14251671 6.15794833
Ni 6.15288793 4.39849359 6.16845424
Ni 6.16676471 6.16137945 4.40417089
Ni 4.38662715 4.40117100 7.92523362
Ni 4.39350783 6.16302996 9.67639599
Ni 6.16847724 4.40918151 9.67505150
Ni 6.17254326 6.15780211 7.93784025
Ni 4.39539770 7.92001163 0.88161007
Ni 4.39311510 9.66432375 2.63272220
Ni 6.16917838 7.91659136 2.63686474
Ni 6.17301256 9.68380083 0.88590833
Ni 4.40714881 7.91148832 4.40083314
Ni 4.40101416 9.67807196 6.15015632
Ni 6.16377297 7.90491091 6.15153649
Ni 6.15259681 9.67585987 4.40712020
Ni 4.41425852 7.93457520 7.92681707
Ni 4.40358148 9.65897019 9.68967947
Ni 6.18277593 7.92344000 9.68180181
Ni 6.16582507 9.68586548 7.92092520
Ni 7.91641830 0.88264537 0.86771191
Ni 7.90316492 2.65140804 2.63571603
Ni 9.68597780 0.89311295 2.65044784
Ni 9.67484993 2.64231360 0.86951733
Ni 7.91877721 0.88863214 4.40002127
Ni 7.89468734 2.61972063 6.15269626
Ni 9.69141021 0.88122183 6.16097455
Ni 9.66814741 2.64075803 4.37978977
Ni 7.92271906 0.88982358 7.91257115
Ni 7.92921333 2.63314552 9.68103277
Ni 9.67851380 0.88029618 9.69313242
Ni 9.68743987 2.63350860 7.89547122
Ni 7.92755772 4.40617386 0.88119551
Ni 7.91480706 6.17349762 2.62405542
Ni 9.67281661 4.38661159 2.64300145
Ni 9.67560543 6.17800978 0.87989130
Ni 7.91759383 4.40450388 4.39331808
Ni 7.91019025 6.16414830 6.15546189
Ni 9.68824946 4.40239896 6.16074434
Ni 9.68029821 6.15870156 4.40330962
Ni 7.91622616 4.38226740 7.92041360
Ni 7.91567501 6.14737573 9.68659883
Ni 9.67636782 4.38413968 9.67908640
Ni 9.67376832 6.14451907 7.92248420
Ni 7.91048439 7.92578602 0.87185537
Ni 7.92828242 9.68321811 2.64070158
Ni 9.67304844 7.92741337 2.64416022
Ni 9.67650748 9.68455920 0.87073983
Ni 7.90847423 7.91864012 4.40036442
Ni 7.92345617 9.68004666 6.17062844
Ni 9.66837330 7.92445052 6.16172638
Ni 9.69159608 9.68056951 4.40252357
Ni 7.93515478 7.92644824 7.92508205
Ni 7.91627608 9.68070287 9.66523131
Ni 9.67229658 7.92514431 9.66413526
Ni 9.68052954 9.67964590 7.92316246
108
Step=80 Lattice="10.56 0 0  0 10.56 0  0 0 10.56" Properties=species:S:1:pos:R:3
Ni 0.87092031 0.87620965 0.89116662
Ni 0.88143432 2.64762342 2.64485303
Ni 2.63404976 0.88427741 2.63693156
Ni 2.63682435 2.64032677 0.86621465
Ni 0.89026405 0.87352983 4.40859141
Ni 0.88090277 2.65303252 6.15387694
Ni 2.63692773 0.88245829 6.14019246
Ni 2.64705254 2.65312147 4.40970942
Ni 0.88638917 0.87816267 7.93110767
Ni 0.88920688 2.64293865 9.67979115
Ni 2.63650564 0.86856157 9.69062235
Ni 2.62045084 2.63617711 7.92119754
Ni 0.88730459 4.41506971 0.88855419
Ni 0.87709632 6.16590904 2.62856356
Ni 2.65238104 4.39808905 2.63376289
Ni 2.63404180 6.15892034 0.87625827
Ni 0.89998083 4.39310299 4.40001128
Ni 0.87993626 6.15972109 6.16023594
Ni 2.63543363 4.39428967 6.15211614
Ni 2.62650863 6.16138321 4.40845393
Ni 0.87488470 4.39451167 7.91694235
Ni 0.87559351 6.14672780 9.69184555
Ni 2.64358217 4.39315798 9.68236964
Ni 2.63580906 6.15758038 7.92296713
Ni 0.88813028 7.93293892 0.89483427
Ni 0.87749014 9.67504095 2.64061455
Ni 2.64084232 7.91294473 2.63424404
Ni 2.64691151 9.69401290 0.87774102
Ni 0.87395667 7.91694687 4.39092788
Ni 0.87729067 9.68319382 6.15903579
Ni 2.65063905 7.92080733 6.16401077
Ni 2.63837688 9.69110316 4.38889489
Ni 0.87699414 7.90905202 7.92706534
Ni 0.88722144 9.67488774 9.69444332
Ni 2.63705780 7.90719107 9.67725776
Ni 2.64288903 9.67739068 7.93981383
Ni 4.40728592 0.89479196 0.89200692
Ni 4.38474930 2.63612417 2.61557813
Ni 6.15396386 0.88933782 2.63227931
Ni 6.15406275 2.64236684 0.88669242
Ni 4.39654299 0.87719832 4.40688641
Ni 4.40193588 2.63694077 6.16253769
Ni 6.16035449 0.88170181 6.17747687
Ni 6.15695957 2.63468367 4.41225807
Ni 4.39342254 0.89470093 7.91804052
Ni 4.40036123 2.64596489 9.69048586
Ni 6.16851877 0.87766260 9.67648298
Ni 6.16276140 2.64065886 7.91407508
Ni 4.40334311 4.40828514 0.88120371
Ni 4.41356104 6.16309457 2.63835911
Ni 6.16057206 4.39449830 2.63060775
Ni 6.16391076 6.15190208 0.87655531
Ni 4.39891607 4.40287552 4.40381420
Ni 4.40017732 6.14234675 6.15792874
Ni 6.15281875 4.39847900 6.16853660
Ni 6.16683049 6.16139246 4.40421120
Ni 4.38649700 4.40118222 7.92528464
Ni 4.39344485 6.16305957 9.67636092
Ni 6.16855958 4.40927044 9.67500346
Ni 6.17266526 6.15778083 7.93801367
Ni 4.39535319 7.92001146 0.88162562
Ni 4.39304829 9.66417136 2.63265143
Ni 6.16926764 7.91655838 2.63683411
Ni 6.17313905 9.68383786 0.88596581
Ni 4.40721818 7.91140531 4.40084115
Ni 4.40102396 9.67805322 6.15006079
Ni 6.16380965 7.90476419 6.15145461
Ni 6.15252490 9.67581983 4.40718932
Ni 4.41439749 7.93471671 7.92688326
Ni 4.40361670 9.65876594 9.68977389
Ni 6.18299741 7.92347337 9.68181942
Ni 6.16588159 9.68592255 7.92093410
Ni 7.91638350 0.88267115 0.86759266
Ni 7.90300102 2.65151883 2.63567421
Ni 9.68603580 0.89324048 2.65054931
Ni 9.67480003 2.64233608 0.86941564
Ni 7.91876520 0.88871573 4.40002142
Ni 7.89444153 2.61952372 6.15262502
Ni 9.69152129 0.88123381 6.16098383
Ni 9.66803215 2.64076551 4.37959361
Ni 7.92274585 0.88991916 7.91249902
Ni 7.92930279 2.63307885 9.68104270
Ni 9.67849954 0.88029912 9.69325982
Ni 9.68751228 2.63344529 7.89523267
Ni 7.92763129 4.40623386 0.88120711
Ni 7.91475670 6.17362884 2.62390040
Ni 9.67274682 4.38648172 2.64303057
Ni 9.67556272 6.17818511 0.87989012
Ni 7.91757025 4.40454780 4.39325320
Ni 7.91009498 6.16418834 6.15541801
Ni 9.68832931 4.40242213 6.16075117
Ni 9.68030108 6.15868880 4.40334161
Ni 7.91618969 4.38209467 7.92041735
Ni 7.91563336 6.14725289 9.68666301
Ni 9.67633261 4.38398531 9.67907751
Ni 9.67370755 6.14436831 7.92250839
Ni 7.91039204 7.92584252 0.87177599
Ni 7.92836305 9.68324973 2.64070854
Ni 9.67298057 7.92748555 2.64420064
Ni 9.67647330 9.68460344 0.87064981
Ni 7.90836233 7.91862712 4.40036791
Ni 7.92348977 9.68004727 6.17073166
Ni 9.66826031 7.92449367 6.16174320
Ni 9.69170866 9.68057516 4.40254820
Ni 7.93530202 7.92651071 7.92513136
Ni 7.91623995 9.68071002 9.66508759
Ni 9.67222178 7.92519423 9.66398120
Ni 9.68053502 9.67964286 7.92319330
108
Step=100 Lattice="10.56 0 0  0 10.56 0  0 0 10.56" Properties=species:S:1:pos:R:3
Ni 0.87083274 0.87617330 0.89127433
Ni 0.88144844 2.64769692 2.64489970
Ni 2.63399237 0.88431880 2.63690201
Ni 2.63679348 2.64032995 0.86608188
Ni 0.89036287 0.87346787 4.40867391
Ni 0.88091140 2.65315782 6.15381769
Ni 2.63689808 0.88248196 6.14000207
Ni 2.64712077 2.65324770 4.40980259
Ni 0.88645074 0.87814482 7.93121471
Ni 0.88929532 2.64296689 9.67978928
Ni 2.63647229 0.86845149 9.69072487
Ni 2.62026268 2.63614020 7.92120904
Ni 0.88737466 4.41521467 0.88863672
Ni 0.87706810 6.16596580 2.62845356
Ni 2.65250044 4.39807091 2.63370277
Ni 2.63398463 6.15890998 0.87622225
Ni 0.90017300 4.39303674 4.40001104
Ni 0.87993551 6.15971856 6.16023831
Ni 2.63538976 4.39423470 6.15204058
Ni 2.62637879 6.16139661 4.40853511
Ni 0.87483550 4.39445888 7.91691304
Ni 0.87555074 6.14659993 9.69195969
Ni 2.64361657 4.39309218 9.68239241
Ni 2.63576866 6.15755698 7.92299566
Ni 0.88820839 7.93306366 0.89497694
Ni 0.87746596 9.67499335 2.64062037
Ni 2.64085057 7.91287664 2.63418873
Ni 2.64697819 9.69414782 0.87771943
Ni 0.87389856 7.91691744 4.39084067
Ni 0.87726486 9.68322427 6.15902683
Ni 2.65074151 7.92081525 6.16404950
Ni 2.63836126 9.69120965 4.38878776
Ni 0.87696503 7.90894648 7.92713336
Ni 0.88729081 9.67483840 9.69458252
Ni 2.63702936 7.90706756 9.67723154
Ni 2.64291689 9.67736562 7.94000451
Ni 4.40735619 0.89493407 0.89212221
Ni 4.38460235 2.63608703 2.61534336
Ni 6.15390569 0.88942758 2.63220525
Ni 6.15400578 2.64238991 0.88675637
Ni 4.39650982 0.87717143 4.40695231
Ni 4.40195432 2.63691144 6.16256232
Ni 6.16035760 0.88171782 6.17764514
Ni 6.15692973 2.63463257 4.41237585
Ni 4.39335887 0.89484238 7.91802199
Ni 4.40036489 2.64602232 9.69058671
Ni 6.16860052 0.87764019 9.67644898
Ni 6.16278771 2.64066528 7.91401851
Ni 4.40337537 4.40836514 0.88121506
Ni 4.41369166 6.16312433 2.63834337
Ni 6.16057735 4.39444535 2.63051750
Ni 6.16394825 6.15182418 0.87652195
Ni 4.39890584 4.40290318 4.40385065
Ni 4.40017903 6.14217681 6.15790916
Ni 6.15274957 4.39846442 6.16861896
Ni 6.16689626 6.16140546 4.40425150
Ni 4.38636685 4.40119343 7.92533565
Ni 4.39338188 6.16308919 9.67632585
Ni 6.16864191 4.40935935 9.67495543
Ni 6.17278725 6.15775955 7.93818708
Ni 4.39530870 7.92001129 0.88164116
Ni 4.39298148 9.66401898 2.63258068
Ni 6.16935690 7.91652541 2.63680347
Ni 6.17326552 9.68387488 0.88602329
Ni 4.40728755 7.91132230 4.40084917
Ni 4.40103375 9.67803448 6.14996528
Ni 6.16384633 7.90461750 6.15137275
Ni 6.15245300 9.67577979 4.40725843
Ni 4.41453646 7.93485820 7.92694943
Ni 4.40365192 9.65856171 9.68986831
Ni 6.18321886 7.92350674 9.68183703
Ni 6.16593810 9.68597961 7.92094300
Ni 7.91634870 0.88269692 0.86747342
Ni 7.90283714 2.65162960 2.63563239
Ni 9.68609379 0.89336800 2.65065076
Ni 9.67475015 2.64235855 0.86931396
Ni 7.91875319 0.88879931 4.40002157
Ni 7.89419575 2.61932684 6.15255378
Ni 9.69163236 0.88124579 6.16099310
Ni 9.66791689 2.64077299 4.37939748
Ni 7.92277266 0.89001474 7.91242690
Ni 7.92939224 2.63301219 9.68105263
Ni 9.67848528 0.88030206 9.69338719
Ni 9.68758468 2.63338199 7.89499414
Ni 7.92770485 4.40629386 0.88121870
Ni 7.91470635 6.17376004 2.62374539
Ni 9.67267704 4.38635188 2.64305968
Ni 9.67552000 6.17836043 0.87988894
Ni 7.91754666 4.40459173 4.39318832
Ni 7.90999971 6.16422837 6.15537414
Ni 9.68840915 4.40244530 6.16075800
Ni 9.68030394 6.15867604 4.40337359
Ni 7.91615324 4.38192195 7.92042109
Ni 7.91559172 6.14713007 9.68672720
Ni 9.67629742 4.38383094 9.67906861
Ni 9.67364678 6.14421755 7.92253258
Ni 7.91029970 7.92589902 0.87169662
Ni 7.92844368 9.68328136 2.64071551
Ni 9.67291269 7.92755773 2.64424105
Ni 9.67643911 9.68464768 0.87055979
Ni 7.90825043 7.91861413 4.40037139
Ni 7.92352337 9.68004789 6.17083487
Ni 9.66814734 7.92453680 6.16176001
Ni 9.69182123 9.68058081 4.40257283
Ni 7.93544925 7.92657317 7.92518066
Ni 7.91620383 9.68071718 9.66494388
Ni 9.67214699 7.92524415 9.66382717
Ni 9.68054051 9.67963983 7.92322414
108
Step=120 Lattice="10.56 0 0  0 10.56 0  0 0 10.56" Properties=species:S:1:pos:R:3
Ni 0.87074517 0.87613697 0.89138204
Ni 0.88146257 2.64777041 2.64494636
Ni 2.63393498 0.88436020 2.63687247
Ni 2.63676260 2.64033312 0.86594912
Ni 0.89046168 0.87340593 4.40875639
Ni 0.88092003 2.65328310 6.15375843
Ni 2.63686842 0.88250562 6.13981171
Ni 2.64718900 2.65337392 4.40989574
Ni 0.88651231 0.87812697 7.93132175
Ni 0.88938376 2.64299512 9.67978741
Ni 2.63643895 0.86834142 9.69082738
Ni 2.62007454 2.63610329 7.92122054
Ni 0.88744472 4.41535961 0.88871925
Ni 0.87703987 6.16602255 2.62834358
Ni 2.65261984 4.39805277 2.63364264
Ni 2.63392748 6.15889962 0.87618623
Ni 0.90036515 4.39297051 4.40001078
Ni 0.87993475 6.15971604 6.16024068
Ni 2.63534590 4.39417974 6.15196503
Ni 2.62624895 6.16141001 4.40861628
Ni 0.87478630 4.39440610 7.91688373
Ni 0.87550797 6.14647207 9.69207383
Ni 2.64365097 4.39302639 9.68241518
Ni 2.63572827 6.15753358 7.92302419
Ni 0.88828649 7.93318839 0.89511959
Ni 0.87744177 9.67494575 2.64062619
Ni 2.64085882 7.91280855 2.63413342
Ni 2.64704487 9.69428273 0.87769784
Ni 0.87384045 7.91688802 4.39075347
Ni 0.87723905 9.68325471 6.15901787
Ni 2.65084396 7.92082318 6.16408822
Ni 2.63834564 9.69131612 4.38868063
Ni 0.87693592 7.90884094 7.92720138
Ni 0.88736016 9.67478905 9.69472170
Ni 2.63700091 7.90694405 9.67720532
Ni 2.64294475 9.67734056 7.94019517
Ni 4.40742646 0.89507616 0.89223748
Ni 4.38445541 2.63604991 2.61510863
Ni 6.15384753 0.88951733 2.63213121
Ni 6.15394882 2.64241299 0.88682030
Ni 4.39647666 0.87714455 4.40701819
Ni 4.40197276 2.63688211 6.16258696
Ni 6.16036071 0.88173382 6.17781338
Ni 6.15689988 2.63458147 4.41249362
Ni 4.39329520 0.89498381 7.91800348
Ni 4.40036855 2.64607974 9.69068754
Ni 6.16868225 0.87761778 9.67641498
Ni 6.16281401 2.64067171 7.91396196
Ni 4.40340763 4.40844514 0.88122640
Ni 4.41382226 6.16315408 2.63832762
Ni 6.16058264 4.39439240 2.63042726
Ni 6.16398573 6.15174630 0.87648858
Ni 4.39889561 4.40293085 4.40388708
Ni 4.40018075 6.14200689 6.15788959
Ni 6.15268039 4.39844984 6.16870132
Ni 6.16696203 6.16141844 4.40429178
Ni 4.38623672 4.40120463 7.92538667
Ni 4.39331892 6.16311881 9.67629079
Ni 6.16872422 4.40944824 9.67490740
Ni 6.17290923 6.15773828 7.93836046
Ni 4.39526421 7.92001111 0.88165670
Ni 4.39291469 9.66386662 2.63250993
Ni 6.16944614 7.91649244 2.63677283
Ni 6.17339199 9.68391190 0.88608077
Ni 4.40735690 7.91123930 4.40085717
Ni 4.40104353 9.67801574 6.14986978
Ni 6.16388300 7.90447081 6.15129091
Ni 6.15238111 9.67573976 4.40732752
Ni 4.41467542 7.93499967 7.92701560
Ni 4.40368716 9.65835751 9.68996273
Ni 6.18344030 7.92354010 9.68185464
Ni 6.16599460 9.68603666 7.92095189
Ni 7.91631391 0.88272270 0.86735420
Ni 7.90267326 2.65174036 2.63559057
Ni 9.68615177 0.89349551 2.65075221
Ni 9.67470027 2.64238102 0.86921230
Ni 7.91874118 0.88888286 4.40002171
Ni 7.89395001 2.61912999 6.15248254
Ni 9.69174343 0.88125778 6.16100237
Ni 9.66780164 2.64078048 4.37920138
Ni 7.92279947 0.89011031 7.91235480
Ni 7.92948167 2.63294554 9.68106256
Ni 9.67847102 0.88030500 9.69351455
Ni 9.68765708 2.63331869 7.89475563
Ni 7.92777840 4.40635385 0.88123030
Ni 7.91465600 6.17389123 2.62359040
Ni 9.67260726 4.38622206 2.64308878
Ni 9.67547730 6.17853574 0.87988775
Ni 7.91752307 4.40463566 4.39312345
Ni 7.90990446 6.16426839 6.15533028
Ni 9.68848898 4.40246846 6.16076481
Ni 9.68030680 6.15866327 4.40340556
Ni 7.91611679 4.38174923 7.92042483
Ni 7.91555009 6.14700725 9.68679137
Ni 9.67626222 4.38367659 9.67905971
Ni 9.67358601 6.14406680 7.92255676
Ni 7.91020738 7.92595552 0.87161726
Ni 7.92852431 9.68331299 2.64072248
Ni 9.67284482 7.92762990 2.64428145
Ni 9.67640492 9.68469190 0.87046979
Ni 7.90813856 7.91860114 4.40037488
Ni 7.92355696 9.68004852 6.17093806
Ni 9.66803437 7.92457993 6.16177682
Ni 9.69193378 9.68058646 4.40259746
Ni 7.93559646 7.92663562 7.92522996
Ni 7.91616772 9.68072435 9.66480017
Ni 9.67207221 7.92529406 9.66367315
Ni 9.68054601 9.67963681 7.92325498
108
Step=140 Lattice="10.56 0 0  0 10.56 0  0 0 10.56" Properties=species:S:1:pos:R:3
Ni 0.87065761 0.87610065 0.89148975
Ni 0.88147670 2.64784389 2.64499302
Ni 2.63387759 0.88440160 2.63684293
Ni 2.63673171 2.64033630 0.86581637
Ni 0.89056048 0.87334401 4.40883886
Ni 0.88092865 2.65340837 6.15369917
Ni 2.63683877 0.88252928 6.13962138
Ni 2.64725724 2.65350011 4.40998887
Ni 0.88657387 0.87810911 7.93142878
Ni 0.88947217 2.64302335 9.67978555
Ni 2.63640562 0.86823136 9.69092989
Ni 2.61988642 2.63606638 7.92123204
Ni 0.88751477 4.41550453 0.88880177
Ni 0.87701165 6.16607929 2.62823361
Ni 2.65273924 4.39803465 2.63358253
Ni 2.63387033 6.15888927 0.87615021
Ni 0.90055727 4.39290428 4.40001051
Ni 0.87993400 6.15971352 6.16024306
Ni 2.63530204 4.39412478 6.15188951
Ni 2.62611914 6.16142341 4.40869744
Ni 0.87473711 4.39435332 7.91685443
Ni 0.87546518 6.14634422 9.69218796
Ni 2.64368537 4.39296061 9.68243794
Ni 2.63568788 6.15751018 7.92305272
Ni 0.88836458 7.93331312 0.89526223
Ni 0.87741759 9.67489815 2.64063201
Ni 2.64086708 7.91274046 2.63407812
Ni 2.64711154 9.69441763 0.87767626
Ni 0.87378235 7.91685860 4.39066628
Ni 0.87721326 9.68328514 6.15900892
Ni 2.65094640 7.92083110 6.16412695
Ni 2.63833003 9.69142256 4.38857351
Ni 0.87690680 7.90873541 7.92726939
Ni 0.88742951 9.67473972 9.69486087
Ni 2.63697246 7.90682055 9.67717911
Ni 2.64297262 9.67731551 7.94038580
Ni 4.40749672 0.89521823 0.89235272
Ni 4.38430848 2.63601280 2.61487392
Ni 6.15378937 0.88960707 2.63205719
Ni 6.15389187 2.64243607 0.88688421
Ni 4.39644350 0.87711767 4.40708405
Ni 4.40199119 2.63685280 6.16261160
Ni 6.16036380 0.88174981 6.17798161
Ni 6.15687002 2.63453038 4.41261137
Ni 4.39323153 0.89512523 7.91798498
Ni 4.40037222 2.64613716 9.69078836
Ni 6.16876397 0.87759538 9.67638098
Ni 6.16284030 2.64067814 7.91390543
Ni 4.40343989 4.40852514 0.88123773
Ni 4.41395286 6.16318383 2.63831188
Ni 6.16058793 4.39433946 2.63033704
Ni 6.16402321 6.15166843 0.87645521
Ni 4.39888538 4.40295851 4.40392350
Ni 4.40018246 6.14183698 6.15787004
Ni 6.15261122 4.39843526 6.16878367
Ni 6.16702779 6.16143142 4.40433206
Ni 4.38610659 4.40121583 7.92543768
Ni 4.39325597 6.16314843 9.67625572