108
Step=0 Lattice="10.845 0 0  0 10.845 0  0 0 10.845" Properties=species:S:1:pos:R:3
Cu 10.84080531 10.84324698 0.00515824
Cu 0.00066197 1.81102149 1.80974310
Cu 1.80475141 0.00197502 1.80608073
Cu 1.80603561 1.80765172 10.83863185
Cu 0.00474307 10.84200666 3.61896924
Cu 0.00041847 1.81352322 5.41967422
Cu 1.80608048 0.00113747 5.41334621
Cu 1.81075689 1.81356375 3.61948741
Cu 0.00295177 10.84415370 7.23513184
Cu 0.00425633 1.80885784 9.03740139
Cu 1.80588359 10.83971513 9.04240654
Cu 1.79846865 1.80573502 7.23055441
Cu 0.00337706 3.62196390 0.00395180
Cu 10.84365893 5.42523144 1.80221451
Cu 1.81321920 3.61411525 1.80461767
Cu 1.80474526 5.42200101 10.84327069
Cu 0.00923289 3.61181097 3.61500814
Cu 10.84497068 5.42236989 5.42260814
Cu 1.80538997 3.61236024 5.41885454
Cu 1.80126589 5.42313820 3.61890755
Cu 10.84263586 3.61246249 7.22858662
Cu 10.84296544 5.41636823 9.04297277
Cu 1.80915529 3.61183801 9.03859393
Cu 1.80556459 5.42138224 7.23137282
Cu 0.00375572 7.23597721 0.00685523
Cu 10.84384085 9.03520825 1.80778261
Cu 1.80788892 7.22674053 1.80483843
Cu 1.81069234 9.04397355 10.84395524
Cu 10.84220701 7.22858800 3.61080747
Cu 10.84374535 9.03897967 5.42205205
Cu 1.81241494 7.23037173 5.42435267
Cu 1.80674918 9.04263392 3.60987026
Cu 10.84361096 7.22494223 7.23326551
Cu 0.00333590 9.03514063 9.04417235
Cu 1.80614298 7.22408306 9.03623193
Cu 1.80883405 9.03629529 7.23915475
Cu 3.61836648 0.00683701 0.00554968
Cu 3.60795467 1.80570817 1.79621448
Cu 5.41971129 0.00431529 1.80392950
Cu 5.41975498 1.80859096 0.00309521
Cu 3.61340124 10.84370419 3.61818314
Cu 3.61589478 1.80608592 5.42367055
Cu 5.42266526 0.00079021 5.43057468
Cu 5.42109819 1.80504373 3.62066595
Cu 3.61196261 0.00679307 7.22909416
Cu 3.61516636 1.81025620 9.04234535
Cu 5.42643803 10.84391959 9.03587464
Cu 5.42377778 1.80780267 7.22726032
Cu 3.61654557 3.61882601 0.00055795
Cu 3.62126540 5.42392872 1.80673968
Cu 5.42276499 3.61245752 1.80315823
Cu 5.42430772 5.41875694 10.84341050
Cu 3.61449770 3.61632934 3.61676505
Cu 3.61508191 5.41434371 5.42154038
Cu 5.41918126 3.61429694 5.42644371
Cu 5.42565597 5.42314554 3.61694822
Cu 3.60876203 3.61554846 7.23244190
Cu 3.61197002 5.42391195 9.03581737
Cu 5.42645545 3.61928691 9.03519048
Cu 5.42835171 5.42147319 7.23832285
Cu 3.61285170 7.23000667 0.00075271
Cu 3.61178693 9.03018658 1.80410370
Cu 5.42678261 7.22840892 1.80603693
Cu 5.42857119 9.03927110 0.00275528
Cu 3.61833618 7.22603019 3.61538924
Cu 3.61547354 9.03659980 5.41790560
Cu 5.42426177 7.22296158 5.41854749
Cu 5.41904466 9.03556648 3.61832267
Cu 3.62164939 7.23680129 7.23318216
Cu 3.61666926 9.02768826 9.04201400
Cu 5.43312432 7.23160595 9.03833974
Cu 5.42521769 9.04023634 7.23043424
Cu 7.22832839 0.00123334 10.83926521
Cu 7.22214791 1.81282366 1.80550425
Cu 9.04028991 0.00611554 1.81237469
Cu 9.03509567 1.80857721 10.84010715
Cu 7.22943161 0.00402963 3.61501046
Cu 7.21819002 1.79803774 5.41909531
Cu 9.04282253 0.00057010 5.42295707
Cu 9.03197131 1.80785267 3.60556939
Cu 7.23126630 0.00458311 7.22653340
Cu 7.23430000 1.80430129 9.03798353
Cu 9.03680439 0.00013871 9.04362909
Cu 9.04097136 1.80447288 7.21855847
Cu 7.23352520 3.61788161 0.00055877
Cu 7.22757704 5.42879734 1.80006151
Cu 9.03414830 3.60875133 1.80890243
Cu 9.03545033 5.43089976 10.84494928
Cu 7.22887927 3.61710148 3.61188099
Cu 7.22542296 5.42443701 5.42038056
Cu 9.04135215 3.61612095 5.42285029
Cu 9.03763936 5.42189447 3.61654504
Cu 7.22823912 3.60673017 7.23019601
Cu 7.22797869 5.41661081 9.04057940
Cu 9.03580510 3.60760216 9.03707410
Cu 9.03459505 5.41527976 7.23115833
Cu 7.22555863 7.23269767 10.84120180
Cu 7.23386400 9.03899829 1.80782511
Cu 9.03425805 7.23345678 1.80944057
Cu 9.03587290 9.03962711 10.84067903
Cu 7.22462223 7.22936403 3.61517040
Cu 7.23161296 9.03752049 5.42745996
Cu 9.03207497 7.23207767 5.42330599
Cu 9.04291161 9.03776473 3.61617625
Cu 7.23707092 7.23301117 7.23237308
Cu 7.22826052 9.03782529 9.03061098
Cu 9.03390441 7.23240200 9.03009727
Cu 9.03774335 9.03733269 7.23147426
108
Step=100 Lattice="10.845 0 0  0 10.845 0  0 0 10.845" Properties=species:S:1:pos:R:3
Cu 10.84059490 10.84315940 0.00541698
Cu 0.00069576 1.81119804 1.80985538
Cu 1.80461357 0.00207433 1.80600953
Cu 1.80596179 1.80765943 10.83831285
Cu 0.00498070 10.84185722 3.61916756
Cu 0.00043938 1.81382464 5.41953224
Cu 1.80600920 0.00119453 5.41288828
Cu 1.81092062 1.81386733 3.61971158
Cu 0.00309973 10.84411114 7.23538907
Cu 0.00446925 1.80892573 9.03739662
Cu 1.80580315 10.83945051 9.04265276
Cu 1.79801649 1.80564646 7.23058220
Cu 0.00354579 3.62231251 0.00415007
Cu 10.84359122 5.42536802 1.80194993
Cu 1.81350603 3.61407138 1.80447309
Cu 1.80460759 5.42197607 10.84318404
Cu 0.00969498 3.61165141 3.61500796
Cu 10.84496892 5.42236364 5.42261372
Cu 1.80528446 3.61222794 5.41867250
Cu 1.80095371 5.42317028 3.61910291
Cu 10.84251750 3.61233539 7.22851606
Cu 10.84286286 5.41606095 9.04324710
Cu 1.80923803 3.61167974 9.03864856
Cu 1.80546762 5.42132605 7.23144163
Cu 0.00394341 7.23627689 0.00719832
Cu 10.84378278 9.03509373 1.80779646
Cu 1.80790869 7.22657693 1.80470520
Cu 1.81085246 9.04429775 10.84390318
Cu 10.84206723 7.22851713 3.61059773
Cu 10.84368293 9.03905338 5.42203015
Cu 1.81266113 7.23039060 5.42444566
Cu 1.80671154 9.04289041 3.60961294
Cu 10.84354100 7.22468864 7.23342913
Cu 0.00350260 9.03502236 9.04450678
Cu 1.80607490 7.22378636 9.03616874
Cu 1.80890092 9.03623516 7.23961307
Cu 3.61853539 0.00717898 0.00582711
Cu 3.60760161 1.80561874 1.79564990
Cu 5.41957149 0.00453117 1.80375105
Cu 5.41961780 1.80864605 0.00324938
Cu 3.61332131 10.84363939 3.61834177
Cu 3.61593919 1.80601532 5.42372950
Cu 5.42267300 0.00082924 5.43097910
Cu 5.42102693 1.80492088 3.62094938
Cu 3.61180984 0.00713315 7.22904951
Cu 3.61517504 1.81039427 9.04258783
Cu 5.42663482 10.84386565 9.03579290
Cu 5.42384130 1.80781790 7.22712400
Cu 3.61662322 3.61901803 0.00058549
Cu 3.62157931 5.42400012 1.80670157
Cu 5.42277784 3.61233017 1.80294101
Cu 5.42439797 5.41856952 10.84333058
Cu 3.61447288 3.61639592 3.61685302
Cu 3.61508603 5.41393525 5.42149296
Cu 5.41901490 3.61426185 5.42664158
Cu 5.42581408 5.42317713 3.61704543
Cu 3.60844935 3.61557571 7.23256452
Cu 3.61181848 5.42398292 9.03573294
Cu 5.42665344 3.61950113 9.03507489
Cu 5.42864490 5.42142185 7.23873967
Cu 3.61274455 7.23000647 0.00079028
Cu 3.61162620 9.02982031 1.80393351
Cu 5.42699722 7.22832952 1.80596329
Cu 5.42887526 9.03935983 0.00289330
Cu 3.61850306 7.22583087 3.61540858
Cu 3.61549714 9.03655467 5.41767574
Cu 5.42435013 7.22260908 5.41835015
Cu 5.41887164 9.03546997 3.61848891
Cu 3.62198303 7.23714160 7.23334146
Cu 3.61675365 9.02719724 9.04224066
Cu 5.43365648 7.23168630 9.03838196
Cu 5.42535357 9.04037347 7.23045594
Cu 7.22824467 0.00129519 10.83897831
Cu 7.22175425 1.81309013 1.80540409
Cu 9.04042945 0.00642183 1.81261863
Cu 9.03497552 1.80863099 10.83986241
Cu 7.22940301 0.00423089 3.61501090
Cu 7.21759906 1.79756428 5.41892443
Cu 9.04308940 0.00059889 5.42297969
Cu 9.03169438 1.80787050 3.60509763
Cu 7.23133038 0.00481284 7.22635992
Cu 7.23451524 1.80414097 9.03800764
Cu 9.03676980 0.00014583 9.04393563
Cu 9.04114543 1.80432091 7.21798535
Cu 7.23370191 3.61802598 0.00058676
Cu 7.22745594 5.42911275 1.79968895
Cu 9.03398051 3.60843886 1.80897267
Cu 9.03534772 5.43132083 10.84494647
Cu 7.22882283 3.61720707 3.61172483
Cu 7.22519388 5.42453351 5.42027479
Cu 9.04154453 3.61617684 5.42286715
Cu 9.03764628 5.42186385 3.61662207
Cu 7.22815139 3.60631542 7.23020542
Cu 7.22787807 5.41631564 9.04073376
Cu 9.03572042 3.60723133 9.03705277
Cu 9.03444929 5.41491769 7.23121637
Cu 7.22533638 7.23283323 10.84101123
Cu 7.23405778 9.03907387 1.80784157
Cu 9.03409511 7.23363004 1.80953767
Cu 9.03579105 9.03973349 10.84046257
Cu 7.22435316 7.22933256 3.61517885
Cu 7.23169379 9.03752179 5.42770823
Cu 9.03180330 7.23218155 5.42334647
Cu 9.04318241 9.03777817 3.61623531
Cu 7.23742494 7.23316170 7.23249188
Cu 7.22817342 9.03784210 9.03026568
Cu 9.03372442 7.23252225 9.02972680
Cu 9.03775603 9.03732505 7.23154824
108
Step=200 Lattice="10.845 0 0  0 10.845 0  0 0 10.845" Properties=species:S:1:pos:R:3
Cu 10.84038444 10.84307186 0.00567577
Cu 0.00072963 1.81137461 1.80996765
Cu 1.80447569 0.00217369 1.80593833
Cu 1.80588791 1.80766716 10.83799384
Cu 0.00521834 10.84170785 3.61936583
Cu 0.00046028 1.81412602 5.41939018
Cu 1.80593790 0.00125160 5.41243043
Cu 1.81108444 1.81417090 3.61993567
Cu 0.00324771 10.84406854 7.23564633
Cu 0.00468213 1.80899361 9.03739187
Cu 1.80572278 10.83918591 9.04289905
Cu 1.79756434 1.80555789 7.23060999
Cu 0.00371446 3.62266109 0.00434838
Cu 10.84352343 5.42550458 1.80168536
Cu 1.81379291 3.61402758 1.80432849
Cu 1.80446996 5.42195114 10.84309739
Cu 0.01015702 3.61149189 3.61500769
Cu 10.84496712 5.42235743 5.42261932
Cu 1.80517898 3.61209563 5.41849054
Cu 1.80064154 5.42320238 3.61929821
Cu 10.84239915 3.61220829 7.22844553
Cu 10.84276020 5.41575364 9.04352146
Cu 1.80932075 3.61152149 9.03870317
Cu 1.80537065 5.42126983 7.23151044
Cu 0.00413105 7.23657661 0.00754139
Cu 10.84372470 9.03497923 1.80781028
Cu 1.80792849 7.22641328 1.80457198
Cu 1.81101263 9.04462197 10.84385115
Cu 10.84192746 7.22844625 3.61038802
Cu 10.84362056 9.03912703 5.42200833
Cu 1.81290733 7.23040951 5.42453869
Cu 1.80667389 9.04314681 3.60935556
Cu 10.84347099 7.22443500 7.23359277
Cu 0.00366925 9.03490407 9.04484125
Cu 1.80600680 7.22348960 9.03610560
Cu 1.80896781 9.03617504 7.24007138
Cu 3.61870433 0.00752089 0.00610447
Cu 3.60724851 1.80552936 1.79508541
Cu 5.41943168 0.00474702 1.80357266
Cu 5.41948066 1.80870121 0.00340344
Cu 3.61324140 10.84357460 3.61850030
Cu 3.61598355 1.80594475 5.42378850
Cu 5.42268067 0.00086818 5.43138353
Cu 5.42095552 1.80479806 3.62123275
Cu 3.61165699 0.00747321 7.22900495
Cu 3.61518377 1.81053234 9.04283028
Cu 5.42683155 10.84381172 9.03571111
Cu 5.42390476 1.80783314 7.22698780
Cu 3.61670089 3.61921010 0.00061297
Cu 3.62189324 5.42407151 1.80666347
Cu 5.42279065 3.61220282 1.80272383
Cu 5.42448817 5.41838211 10.84325061
Cu 3.61444811 3.61646251 3.61694093
Cu 3.61509016 5.41352678 5.42144563
Cu 5.41884851 3.61422676 5.42683950
Cu 5.42597220 5.42320861 3.61714258
Cu 3.60813662 3.61560291 7.23268719
Cu 3.61166698 5.42405394 9.03564850
Cu 5.42685140 3.61971527 9.03495931
Cu 5.42893812 5.42137053 7.23915648
Cu 3.61263746 7.23000621 0.00082783
Cu 3.61146550 9.02945404 1.80376331
Cu 5.42721184 7.22825016 1.80588960
Cu 5.42917933 9.03944858 0.00303133
Cu 3.61866991 7.22563148 3.61542790
Cu 3.61552072 9.03650953 5.41744591
Cu 5.42443850 7.22225658 5.41815290
Cu 5.41869863 9.03537350 3.61865512
Cu 3.62231675 7.23748186 7.23350074
Cu 3.61683814 9.02670627 9.04246740
Cu 5.43418865 7.23176664 9.03842421
Cu 5.42548942 9.04051062 7.23047763
Cu 7.22816096 0.00135706 10.83869145
Cu 7.22136053 1.81335658 1.80530390
Cu 9.04056896 0.00672813 1.81286255
Cu 9.03485541 1.80868476 10.83961772
Cu 7.22937439 0.00443207 3.61501132
Cu 7.21700816 1.79709087 5.41875348
Cu 9.04335632 0.00062772 5.42300227
Cu 9.03141744 1.80788836 3.60462595
Cu 7.23139455 0.00504260 7.22618647
Cu 7.23473045 1.80398063 9.03803172
Cu 9.03673525 0.00015296 9.04424210
Cu 9.04131953 1.80416889 7.21741222
Cu 7.23387863 3.61817036 0.00061474
Cu 7.22733486 5.42942816 1.79931637
Cu 9.03381272 3.60812646 1.80904290
Cu 9.03524511 5.43174196 10.84494362
Cu 7.22876634 3.61731269 3.61156869
Cu 7.22496482 5.42462994 5.42016907
Cu 9.04173684 3.61623270 5.42288391
Cu 9.03765319 5.42183319 3.61669905
Cu 7.22806373 3.60590059 7.23021478
Cu 7.22777754 5.41602044 9.04088813
Cu 9.03563577 3.60686045 9.03703144
Cu 9.03430348 5.41455555 7.23127443
Cu 7.22511417 7.23296884 10.84082062
Cu 7.23425159 9.03914955 1.80785806
Cu 9.03393209 7.23380332 1.80963476
Cu 9.03570914 9.03983984 10.84024611
Cu 7.22408412 7.22930115 3.61518728
Cu 7.23177461 9.03752313 5.42795647
Cu 9.03153163 7.23228540 5.42338696
Cu 9.04345318 9.03779164 3.61629439
Cu 7.23777895 7.23331219 7.23261066
Cu 7.22808633 9.03785899 9.02992034
Cu 9.03354444 7.23264247 9.02935638
Cu 9.03776878 9.03731751 7.23162225
108
Step=300 Lattice="10.845 0 0  0 10.845 0  0 0 10.845" Properties=species:S:1:pos:R:3
Cu 10.84017393 10.84298435 0.00593462
Cu 0.00076359 1.81155121 1.81007991
Cu 1.80433778 0.00227312 1.80586712
Cu 1.80581394 1.80767490 10.83767481
Cu 0.00545599 10.84155857 3.61956404
Cu 0.00048116 1.81442737 5.41924804
Cu 1.80586658 0.00130866 5.41197264
Cu 1.81124835 1.81447444 3.62015969
Cu 0.00339571 10.84402591 7.23590362
Cu 0.00489496 1.80906147 9.03738716
Cu 1.80564248 10.83892131 9.04314540
Cu 1.79711220 1.80546928 7.23063778
Cu 0.00388307 3.62300964 0.00454674
Cu 10.84345557 5.42564110 1.80142082
Cu 1.81407986 3.61398383 1.80418387
Cu 1.80433238 5.42192622 10.84301074
Cu 0.01061903 3.61133240 3.61500734
Cu 10.84496529 5.42235125 5.42262495
Cu 1.80507351 3.61196332 5.41830867
Cu 1.80032937 5.42323450 3.61949347
Cu 10.84228081 3.61208120 7.22837503
Cu 10.84265743 5.41544630 9.04379586
Cu 1.80940345 3.61136325 9.03875777
Cu 1.80527366 5.42121358 7.23157925
Cu 0.00431865 7.23687638 0.00788442
Cu 10.84366662 9.03486477 1.80782407
Cu 1.80794834 7.22624959 1.80443879
Cu 1.81117283 9.04494618 10.84379916
Cu 10.84178770 7.22837536 3.61017833
Cu 10.84355826 9.03920061 5.42198658
Cu 1.81315354 7.23042845 5.42463175
Cu 1.80663623 9.04340312 3.60909812
Cu 10.84340093 7.22418133 7.23375640
Cu 0.00383586 9.03478576 9.04517576
Cu 1.80593867 7.22319279 9.03604250
Cu 1.80903471 9.03611495 7.24052968
Cu 3.61887332 0.00786273 0.00638175
Cu 3.60689538 1.80544002 1.79452100
Cu 5.41929184 0.00496284 1.80339434
Cu 5.41934356 1.80875645 0.00355738
Cu 3.61316151 10.84350983 3.61865871
Cu 3.61602785 1.80587422 5.42384756
Cu 5.42268826 0.00090704 5.43178796
Cu 5.42088396 1.80467525 3.62151607
Cu 3.61150404 0.00781325 7.22896049
Cu 3.61519254 1.81067041 9.04307271
Cu 5.42702821 10.84375782 9.03562929
Cu 5.42396815 1.80784841 7.22685173
Cu 3.61677858 3.61940225 0.00064039
Cu 3.62220718 5.42414289 1.80662538
Cu 5.42280340 3.61207548 1.80250669
Cu 5.42457834 5.41819471 10.84317060
Cu 3.61442339 3.61652909 3.61702877
Cu 3.61509428 5.41311831 5.42139840
Cu 5.41868211 3.61419170 5.42703746
Cu 5.42613033 5.42323998 3.61723967
Cu 3.60782385 3.61563008 7.23280989
Cu 3.61151551 5.42412499 9.03556404
Cu 5.42704935 3.61992933 9.03484375
Cu 5.42923135 5.42131922 7.23957329
Cu 3.61253044 7.23000587 0.00086535
Cu 3.61130482 9.02908777 1.80359311
Cu 5.42742648 7.22817084 1.80581586
Cu 5.42948340 9.03953734 0.00316938
Cu 3.61883672 7.22543202 3.61544720
Cu 3.61554428 9.03646440 5.41721612
Cu 5.42452688 7.22190406 5.41795574
Cu 5.41852563 9.03527709 3.61882131
Cu 3.62265057 7.23782208 7.23366000
Cu 3.61692275 9.02621535 9.04269423
Cu 5.43472085 7.23184695 9.03846648
Cu 5.42562524 9.04064778 7.23049929
Cu 7.22807725 0.00141894 10.83840465
Cu 7.22096675 1.81362300 1.80520366
Cu 9.04070845 0.00703444 1.81310644
Cu 9.03473533 1.80873852 10.83937308
Cu 7.22934574 0.00463317 3.61501174
Cu 7.21641733 1.79661752 5.41858248
Cu 9.04362328 0.00065657 5.42302480
Cu 9.03114049 1.80790625 3.60415435
Cu 7.23145882 0.00527239 7.22601304
Cu 7.23494565 1.80382028 9.03805579
Cu 9.03670075 0.00016012 9.04454851
Cu 9.04149365 1.80401682 7.21683905
Cu 7.23405539 3.61831474 0.00064272
Cu 7.22721382 5.42974358 1.79894379
Cu 9.03364494 3.60781413 1.80911313
Cu 9.03514251 5.43216316 10.84494074
Cu 7.22870980 3.61741836 3.61141256
Cu 7.22473579 5.42472629 5.42006341
Cu 9.04192906 3.61628853 5.42290056
Cu 9.03766009 5.42180249 3.61677598
Cu 7.22797612 3.60548566 7.23022406
Cu 7.22767711 5.41572521 9.04104252
Cu 9.03555115 3.60648952 9.03701011
Cu 9.03415763 5.41419333 7.23133249
Cu 7.22489199 7.23310453 10.84062994
Cu 7.23444544 9.03922531 1.80787458
Cu 9.03376900 7.23397663 1.80973185
Cu 9.03562717 9.03994617 10.84002964
Cu 7.22381512 7.22926979 3.61519570
Cu 7.23185545 9.03752451 5.42820469
Cu 9.03125997 7.23238922 5.42342746
Cu 9.04372391 9.03780514 3.61635350
Cu 7.23813293 7.23346263 7.23272942
Cu 7.22799926 9.03787596 9.02957496
Cu 9.03336449 7.23276269 9.02898599
Cu 9.03778162 9.03731008 7.23169628
108
Step=400 Lattice="10.845 0 0  0 10.845 0  0 0 10.845" Properties=species:S:1:pos:R:3
Cu 10.83996338 10.84289687 0.00619354
Cu 0.00079764 1.81172784 1.81019217
Cu 1.80419985 0.00237260 1.80579591
Cu 1.80573989 1.80768265 10.83735576
Cu 0.00569365 10.84140937 3.61976219
Cu 0.00050204 1.81472868 5.41910583
Cu 1.80579523 0.00136573 5.41151493
Cu 1.81141235 1.81477797 3.62038362
Cu 0.00354373 10.84398324 7.23616094
Cu 0.00510775 1.80912932 9.03738249
Cu 1.80556226 10.83865671 9.04339184
Cu 1.79666007 1.80538065 7.23066556
Cu 0.00405161 3.62335817 0.00474516
Cu 10.84338763 5.42577759 1.80115630
Cu 1.81436686 3.61394016 1.80403921
Cu 1.80419484 5.42190131 10.84292408
Cu 0.01108098 3.61117295 3.61500689
Cu 10.84496341 5.42234512 5.42263061
Cu 1.80496807 3.61183100 5.41812687
Cu 1.80001720 5.42326664 3.61968867
Cu 10.84216247 3.61195411 7.22830456
Cu 10.84255457 5.41513893 9.04407029
Cu 1.80948613 3.61120502 9.03881235
Cu 1.80517666 5.42115730 7.23164805
Cu 0.00450620 7.23717621 0.00822742
Cu 10.84360854 9.03475035 1.80783782
Cu 1.80796822 7.22608585 1.80430561
Cu 1.81133308 9.04527041 10.84374721
Cu 10.84164796 7.22830445 3.60996869
Cu 10.84349604 9.03927412 5.42196493
Cu 1.81339975 7.23044744 5.42472485
Cu 1.80659858 9.04365932 3.60884061
Cu 10.84333081 7.22392762 7.23392005
Cu 0.00400243 9.03466741 9.04551032
Cu 1.80587050 7.22289592 9.03597945
Cu 1.80910162 9.03605488 7.24098795
Cu 3.61904234 0.00820450 0.00665896
Cu 3.60654221 1.80535073 1.79395667
Cu 5.41915199 0.00517862 1.80321608
Cu 5.41920651 1.80881176 0.00371119
Cu 3.61308165 10.84344507 3.61881702
Cu 3.61607210 1.80580371 5.42390666
Cu 5.42269577 0.00094580 5.43219240
Cu 5.42081224 1.80455246 3.62179934
Cu 3.61135099 0.00815327 7.22891613
Cu 3.61520136 1.81080848 9.04331512
Cu 5.42722480 10.84370394 9.03554742
Cu 5.42403146 1.80786369 7.22671578
Cu 3.61685630 3.61959445 0.00066775
Cu 3.62252115 5.42421425 1.80658729
Cu 5.42281608 3.61194813 1.80228958
Cu 5.42466846 5.41800732 10.84309052
Cu 3.61439872 3.61659567 3.61711654
Cu 3.61509841 5.41270983 5.42135126
Cu 5.41851569 3.61415665 5.42723548
Cu 5.42628846 5.42327124 3.61733670
Cu 3.60751104 3.61565720 7.23293264
Cu 3.61136407 5.42419609 9.03547957
Cu 5.42724729 3.62014331 9.03472821
Cu 5.42952461 5.42126794 7.23999010
Cu 3.61242348 7.23000545 0.00090284
Cu 3.61114418 9.02872150 1.80342290
Cu 5.42764113 7.22809156 1.80574208
Cu 5.42978747 9.03962612 0.00330743
Cu 3.61900351 7.22523248 3.61546647
Cu 3.61556783 9.03641926 5.41698638
Cu 5.42461526 7.22155154 5.41775870
Cu 5.41835264 9.03518073 3.61898747
Cu 3.62298450 7.23816226 7.23381925
Cu 3.61700747 9.02572448 9.04292116
Cu 5.43525307 7.23192726 9.03850878
Cu 5.42576103 9.04078495 7.23052093
Cu 7.22799354 0.00148084 10.83811790
Cu 7.22057290 1.81388940 1.80510338
Cu 9.04084790 0.00734077 1.81335031
Cu 9.03461531 1.80879227 10.83912849
Cu 7.22931706 0.00483419 3.61501214
Cu 7.21582657 1.79614424 5.41841141
Cu 9.04389028 0.00068546 5.42304728
Cu 9.03086353 1.80792416 3.60368283
Cu 7.23152319 0.00550220 7.22583963
Cu 7.23516082 1.80365992 9.03807982
Cu 9.03666629 0.00016729 9.04485485
Cu 9.04166780 1.80386469 7.21626586
Cu 7.23423217 3.61845911 0.00067070
Cu 7.22709282 5.43005900 1.79857121
Cu 9.03347717 3.60750188 1.80918334
Cu 9.03503990 5.43258443 10.84493782
Cu 7.22865321 3.61752407 3.61125644
Cu 7.22450678 5.42482257 5.41995782
Cu 9.04212118 3.61634430 5.42291711
Cu 9.03766698 5.42177176 3.61685286
Cu 7.22788858 3.60507063 7.23023328
Cu 7.22757677 5.41542994 9.04119693
Cu 9.03546655 3.60611853 9.03698877
Cu 9.03401172 5.41383104 7.23139057
Cu 7.22466984 7.23324028 10.84043922
Cu 7.23463932 9.03930116 1.80789113
Cu 9.03360581 7.23414997 1.80982892
Cu 9.03554514 9.04005248 10.83981317
Cu 7.22354615 7.22923850 3.61520411
Cu 7.23193628 9.03752593 5.42845289
Cu 9.03098832 7.23249302 5.42346798
Cu 9.04399460 9.03781867 3.61641263
Cu 7.23848690 7.23361302 7.23284817
Cu 7.22791220 9.03789302 9.02922953
Cu 9.03318456 7.23288288 9.02861564
Cu 9.03779455 9.03730275 7.23177034
108
Step=500 Lattice="10.845 0 0  0 10.845 0  0 0 10.845" Properties=species:S:1:pos:R:3
Cu 10.83975277 10.84280944 0.00645252
Cu 0.00083177 1.81190450 1.81030440
Cu 1.80406188 0.00247215 1.80572468
Cu 1.80566576 1.80769041 10.83703669
Cu 0.00593132 10.84126026 3.61996028
Cu 0.00052289 1.81502995 5.41896353
Cu 1.80572386 0.00142281 5.41105730
Cu 1.81157645 1.81508148 3.62060747
Cu 0.00369177 10.84394053 7.23641830
Cu 0.00532050 1.80919715 9.03737785
Cu 1.80548213 10.83839213 9.04363835
Cu 1.79620795 1.80529199 7.23069335
Cu 0.00422009 3.62370667 0.00494363
Cu 10.84331961 5.42591404 1.80089180
Cu 1.81465393 3.61389656 1.80389453
Cu 1.80405736 5.42187641 10.84283742
Cu 0.01154290 3.61101353 3.61500634
Cu 10.84496150 5.42233904 5.42263629
Cu 1.80486265 3.61169868 5.41794517
Cu 1.79970504 5.42329880 3.61988381
Cu 10.84204415 3.61182704 7.22823413
Cu 10.84245160 5.41483153 9.04434476
Cu 1.80956878 3.61104681 9.03886692
Cu 1.80507965 5.42110099 7.23171685
Cu 0.00469370 7.23747609 0.00857039
Cu 10.84355044 9.03463596 1.80785155
Cu 1.80798814 7.22592205 1.80417246
Cu 1.81149336 9.04559464 10.84369530
Cu 10.84150824 7.22823353 3.60975907
Cu 10.84343388 9.03934754 5.42194336
Cu 1.81364598 7.23046647 5.42481797
Cu 1.80656093 9.04391541 3.60858304
Cu 10.84326065 7.22367385 7.23408370
Cu 0.00416895 9.03454903 9.04584492
Cu 1.80580231 7.22259898 9.03591645
Cu 1.80916855 9.03599483 7.24144621
Cu 3.61921141 0.00854620 0.00693608
Cu 3.60618900 1.80526148 1.79339244
Cu 5.41901212 0.00539437 1.80303790
Cu 5.41906952 1.80886715 0.00386487
Cu 3.61300182 10.84338034 3.61897522
Cu 3.61611629 1.80573324 5.42396583
Cu 5.42270319 0.00098446 5.43259685
Cu 5.42074035 1.80442970 3.62208255
Cu 3.61119784 0.00849328 7.22887186
Cu 3.61521024 1.81094656 9.04355749
Cu 5.42742132 10.84365008 9.03546551
Cu 5.42409470 1.80787900 7.22657997
Cu 3.61693405 3.61978673 0.00069504
Cu 3.62283515 5.42428561 1.80654922
Cu 5.42282871 3.61182078 1.80207252
Cu 5.42475854 5.41781995 10.84301039
Cu 3.61437411 3.61666224 3.61720423
Cu 3.61510255 5.41230136 5.42130423
Cu 5.41834926 3.61412161 5.42743355
Cu 5.42644661 5.42330239 3.61743367
Cu 3.60719817 3.61568428 7.23305544
Cu 3.61121267 5.42426724 9.03539508
Cu 5.42744520 3.62035720 9.03461268
Cu 5.42981788 5.42121667 7.24040692
Cu 3.61231659 7.23000495 0.00094031
Cu 3.61098357 9.02835522 1.80325268
Cu 5.42785579 7.22801233 1.80566824
Cu 5.43009155 9.03971492 0.00344550
Cu 3.61917026 7.22503287 3.61548572
Cu 3.61559135 9.03637412 5.41675667
Cu 5.42470366 7.22119901 5.41756176
Cu 5.41817967 9.03508443 3.61915361
Cu 3.62331852 7.23850238 7.23397848
Cu 3.61709231 9.02523366 9.04314818
Cu 5.43578530 7.23200754 9.03855111
Cu 5.42589678 9.04092214 7.23054255
Cu 7.22790983 0.00154276 10.83783120
Cu 7.22017897 1.81415577 1.80500305
Cu 9.04098732 0.00764711 1.81359415
Cu 9.03449532 1.80884601 10.83888395
Cu 7.22928835 0.00503511 3.61501252
Cu 7.21523587 1.79567101 5.41824027
Cu 9.04415734 0.00071438 5.42306971
Cu 9.03058655 1.80794211 3.60321139
Cu 7.23158767 0.00573204 7.22566624
Cu 7.23537597 1.80349954 9.03810383
Cu 9.03663188 0.00017449 9.04516112
Cu 9.04184198 1.80371250 7.21569263
Cu 7.23440898 3.61860349 0.00069866
Cu 7.22697185 5.43037442 1.79819861
Cu 9.03330941 3.60718971 1.80925354
Cu 9.03493730 5.43300578 10.84493487
Cu 7.22859656 3.61762982 3.61110034
Cu 7.22427779 5.42491876 5.41985229
Cu 9.04231322 3.61640004 5.42293354
Cu 9.03767386 5.42174097 3.61692969
Cu 7.22780110 3.60465551 7.23024242
Cu 7.22747655 5.41513464 9.04135135
Cu 9.03538199 3.60574748 9.03696743
Cu 9.03386576 5.41346867 7.23144865
Cu 7.22444774 7.23337611 10.84024843
Cu 7.23483324 9.03937711 1.80790773
Cu 9.03344254 7.23432334 1.80992599
Cu 9.03546305 9.04015877 10.83959670
Cu 7.22327722 7.22920726 3.61521250
Cu 7.23201712 9.03752741 5.42870106
Cu 9.03071667 7.23259678 5.42350850
Cu 9.04426526 9.03783223 3.61647179
Cu 7.23884086 7.23376336 7.23296689
Cu 7.22782515 9.03791017 9.02888406
Cu 9.03300464 7.23300306 9.02824534
Cu 9.03780756 9.03729555 7.23184443
108
Step=600 Lattice="10.845 0 0  0 10.845 0  0 0 10.845" Properties=species:S:1:pos:R:3
Cu 10.83954212 10.84272205 0.00671156
Cu 0.00086601 1.81208120 1.81041663
Cu 1.80392388 0.00257176 1.80565346
Cu 1.80559155 1.80769819 10.83671759
Cu 0.00616900 10.84111124 3.62015831
Cu 0.00054374 1.81533117 5.41882113
Cu 1.80565246 0.00147988 5.41059975
Cu 1.81174065 1.81538497 3.62083123
Cu 0.00383982 10.84389777 7.23667569
Cu 0.00553319 1.80926497 9.03737325
Cu 1.80540207 10.83812754 9.04388494
Cu 1.79575583 1.80520329 7.23072112
Cu 0.00438849 3.62405514 0.00514215
Cu 10.84325151 5.42605046 1.80062733
Cu 1.81494107 3.61385303 1.80374982
Cu 1.80391993 5.42185151 10.84275076
Cu 0.01200476 3.61085414 3.61500569
Cu 10.84495954 5.42233299 5.42264200
Cu 1.80475726 3.61156635 5.41776356
Cu 1.79939289 5.42333098 3.62007891
Cu 10.84192584 3.61169997 7.22816373
Cu 10.84234853 5.41452409 9.04461927
Cu 1.80965142 3.61088862 9.03892148
Cu 1.80498262 5.42104465 7.23178565
Cu 0.00488115 7.23777602 0.00891331
Cu 10.84349234 9.03452161 1.80786524
Cu 1.80800810 7.22575820 1.80403933
Cu 1.81165369 9.04591889 10.84364344
Cu 10.84136853 7.22816260 3.60954949
Cu 10.84337180 9.03942089 5.42192188
Cu 1.81389223 7.23048554 5.42491113
Cu 1.80652327 9.04417140 3.60832540
Cu 10.84319043 7.22342004 7.23424736
Cu 0.00433543 9.03443062 9.04617957
Cu 1.80573408 7.22230198 9.03585349
Cu 1.80923549 9.03593480 7.24190445
Cu 3.61938052 0.00888782 0.00721312
Cu 3.60583574 1.80517229 1.79282829
Cu 5.41887222 0.00561008 1.80285978
Cu 5.41893257 1.80892263 0.00401841
Cu 3.61292202 10.84331563 3.61913329
Cu 3.61616042 1.80566280 5.42402506
Cu 5.42271053 0.00102302 5.43300132
Cu 5.42066830 1.80430695 3.62236569
Cu 3.61104459 0.00883326 7.22882770
Cu 3.61521917 1.81108464 9.04379985
Cu 5.42761777 10.84359625 9.03538355
Cu 5.42415786 1.80789432 7.22644429
Cu 3.61701183 3.61997908 0.00072226
Cu 3.62314916 5.42435694 1.80651115
Cu 5.42284128 3.61169343 1.80185551
Cu 5.42484858 5.41763259 10.84293020
Cu 3.61434955 3.61672881 3.61729184
Cu 3.61510668 5.41189288 5.42125730
Cu 5.41818280 3.61408659 5.42763168
Cu 5.42660476 5.42333342 3.61753056
Cu 3.60688526 3.61571131 7.23317828
Cu 3.61106131 5.42433844 9.03531058
Cu 5.42764310 3.62057100 9.03449716
Cu 5.43011118 5.42116543 7.24082374
Cu 3.61220977 7.23000436 0.00097775
Cu 3.61082299 9.02798894 1.80308245
Cu 5.42807047 7.22793315 1.80559436
Cu 5.43039562 9.03980373 0.00358359
Cu 3.61933698 7.22483317 3.61550495
Cu 3.61561486 9.03632898 5.41652701
Cu 5.42479206 7.22084646 5.41736493
Cu 5.41800671 9.03498818 3.61931971
Cu 3.62365266 7.23884245 7.23413768
Cu 3.61717728 9.02474290 9.04337529
Cu 5.43631757 7.23208781 9.03859347
Cu 5.42603251 9.04105934 7.23056415
Cu 7.22782613 0.00160469 10.83754455
Cu 7.21978497 1.81442211 1.80490268
Cu 9.04112671 0.00795347 1.81383797
Cu 9.03437539 1.80889975 10.83863948
Cu 7.22925960 0.00523594 3.61501289
Cu 7.21464525 1.79519785 5.41806906
Cu 9.04442444 0.00074334 5.42309208
Cu 9.03030955 1.80796009 3.60274004
Cu 7.23165226 0.00596191 7.22549288
Cu 7.23559109 1.80333915 9.03812782
Cu 9.03659752 0.00018170 9.04546732
Cu 9.04201620 1.80356025 7.21511937
Cu 7.23458581 3.61874787 0.00072663
Cu 7.22685091 5.43068985 1.79782601
Cu 9.03314167 3.60687763 1.80932372
Cu 9.03483470 5.43342720 10.84493188
Cu 7.22853985 3.61773563 3.61094426
Cu 7.22404882 5.42501487 5.41974682
Cu 9.04250515 3.61645573 5.42294985
Cu 9.03768073 5.42171015 3.61700646
Cu 7.22771369 3.60424027 7.23025148
Cu 7.22737644 5.41483930 9.04150578
Cu 9.03529746 3.60537637 9.03694609
Cu 9.03371974 5.41310621 7.23150674
Cu 7.22422567 7.23351202 10.84005758
Cu 7.23502720 9.03945316 1.80792436
Cu 9.03327918 7.23449674 1.81002304
Cu 9.03538089 9.04026504 10.83938022
Cu 7.22300833 7.22917609 3.61522088
Cu 7.23209797 9.03752893 5.42894920
Cu 9.03044503 7.23270050 5.42354904
Cu 9.04453587 9.03784583 3.61653099
Cu 7.23919480 7.23391363 7.23308559
Cu 7.22773813 9.03792741 9.02853853
Cu 9.03282475 7.23312321 9.02787509
Cu 9.03782068 9.03728846 7.23191855
108
Step=700 Lattice="10.845 0 0  0 10.845 0  0 0 10.845" Properties=species:S:1:pos:R:3
Cu 10.83933140 10.84263470 0.00697068
Cu 0.00090034 1.81225793 1.81052885
Cu 1.80378584 0.00267144 1.80558222
Cu 1.80551724 1.80770597 10.83639848
Cu 0.00640669 10.84096232 3.62035628
Cu 0.00056456 1.81563235 5.41867865
Cu 1.80558103 0.00153696 5.41014228
Cu 1.81190496 1.81568844 3.62105491
Cu 0.00398791 10.84385497 7.23693312
Cu 0.00574583 1.80933277 9.03736869
Cu 1.80532211 10.83786297 9.04413162
Cu 1.79530372 1.80511456 7.23074889
Cu 0.00455683 3.62440358 0.00534073
Cu 10.84318333 5.42618684 1.80036288
Cu 1.81522828 3.61380958 1.80360508
Cu 1.80378256 5.42182663 10.84266409
Cu 0.01246658 3.61069480 3.61500493
Cu 10.84495754 5.42232700 5.42264775
Cu 1.80465189 3.61143401 5.41758205
Cu 1.79908075 5.42336319 3.62027394
Cu 10.84180753 3.61157290 7.22809337
Cu 10.84224535 5.41421662 9.04489382
Cu 1.80973402 3.61073044 9.03897602
Cu 1.80488558 5.42098827 7.23185444
Cu 0.00506855 7.23807601 0.00925620
Cu 10.84343424 9.03440729 1.80787890
Cu 1.80802811 7.22559429 1.80390622
Cu 1.81181407 9.04624314 10.84359162
Cu 10.84122884 7.22809165 3.60933995
Cu 10.84330980 9.03949414 5.42190050
Cu 1.81413849 7.23050466 5.42500433
Cu 1.80648562 9.04442726 3.60806768
Cu 10.84312015 7.22316618 7.23441102
Cu 0.00450186 9.03431216 9.04651426
Cu 1.80566582 7.22200492 9.03579060
Cu 1.80930245 9.03587479 7.24236268
Cu 3.61954968 0.00922936 0.00749008
Cu 3.60548245 1.80508315 1.79226425
Cu 5.41873231 0.00582575 1.80268175
Cu 5.41879568 1.80897819 0.00417180
Cu 3.61284225 10.84325095 3.61929124
Cu 3.61620449 1.80559240 5.42408435
Cu 5.42271778 0.00106147 5.43340579
Cu 5.42059607 1.80418423 3.62264878
Cu 3.61089124 0.00917323 7.22878365
Cu 3.61522815 1.81122273 9.04404217
Cu 5.42781414 10.84354245 9.03530155
Cu 5.42422094 1.80790967 7.22630876
Cu 3.61708963 3.62017151 0.00074941
Cu 3.62346320 5.42442827 1.80647310
Cu 5.42285378 3.61156608 1.80163854
Cu 5.42493857 5.41744525 10.84284995