108
Step=0 Lattice="10.845 0 0  0 10.845 0  0 0 10.845" Properties=species:S:1:pos:R:3
Cu 10.83450750 10.84065882 0.01290438
Cu 0.00171739 1.81630065 1.81308268
Cu 1.80062548 0.00496901 1.80395702
Cu 1.80378901 1.80788661 10.82911291
Cu 0.01182911 10.83760246 3.62484892
Cu 0.00103307 1.82248412 5.41539426
Cu 1.80394347 0.00283848 5.39974037
Cu 1.81568933 1.82260028 3.62612358
Cu 0.00737227 10.84286035 7.24281685
Cu 0.01057501 1.81087336 9.03728033
Cu 1.80352951 10.83183199 9.04978644
Cu 1.78499552 1.80307885 7.23137923
Cu 0.00836951 3.63233809 0.00988955
Cu 10.84159924 5.42928368 1.79434249
Cu 1.82180301 3.61284645 1.80029499
Cu 1.80067029 5.42126255 10.84068707
Cu 0.02298065 3.60707686 3.61494838
Cu 10.84489711 5.42220726 5.42278997
Cu 1.80225812 3.60841640 5.41347888
Cu 1.79196498 5.42410690 3.62470063
Cu 10.83911370 3.60867987 7.22650174
Cu 10.83985374 5.40719242 9.05116795
Cu 1.81160954 3.60713003 9.04021572
Cu 1.80266650 5.41969069 7.23341958
Cu 0.00932634 7.24493789 0.01706209
Cu 10.84210632 9.03181438 1.80818065
Cu 1.80849963 7.22183676 1.80088120
Cu 1.81548786 9.05364171 10.84242679
Cu 10.83804963 7.22647052 3.60457414
Cu 10.84192540 9.04113219 5.42144735
Cu 1.81976001 7.23095706 5.42714255
Cu 1.80562781 9.05021945 3.60216468
Cu 10.84149846 7.21735954 7.23814457
Cu 0.00828200 9.03159609 9.05416487
Cu 1.80409484 7.21520678 9.03437515
Cu 1.81083564 9.03451203 7.25280730
Cu 3.62342159 0.01698793 0.01377394
Cu 3.59740918 1.80307002 1.77943561
Cu 5.41553431 0.01073083 1.79865081
Cu 5.41569394 1.81027704 0.00761854
Cu 3.61103479 10.84178476 3.62285072
Cu 3.61718859 1.80399980 5.42545920
Cu 5.42285028 0.00189724 5.44263319
Cu 5.41888643 1.80139298 3.62908115
Cu 3.60735565 0.01691932 7.22781544
Cu 3.61545236 1.81437310 9.04955866
Cu 5.43226481 10.84232499 9.03341562
Cu 5.42562969 1.80826915 7.22326882
Cu 3.61887252 3.62458727 0.00134250
Cu 3.63063387 5.42605155 1.80561090
Cu 5.42311590 3.60866320 1.79670829
Cu 5.42697411 5.41317948 10.84099702
Cu 3.61378793 3.61831190 3.61934575
Cu 3.61520566 5.40216760 5.42018229
Cu 5.41421415 3.61325962 5.43236967
Cu 5.43037237 5.42402467 3.61980881
Cu 3.59941733 3.61633466 7.23611933
Cu 3.60747327 5.42605282 9.03329486
Cu 5.43234596 3.62562193 9.03175482
Cu 5.43710185 5.41995560 7.25074690
Cu 3.60969403 7.22995700 0.00185678
Cu 3.60701391 9.01926811 1.79902832
Cu 5.43318552 7.22606659 1.80381694
Cu 5.43763415 9.04192807 0.00687710
Cu 3.62329180 7.22004721 3.61595256
Cu 3.61616658 9.03525427 5.41107882
Cu 5.42689682 7.21244919 5.41272599
Cu 5.41389594 9.03272076 3.62326236
Cu 3.63165102 7.24691739 7.23791798
Cu 3.61924807 9.01307998 9.04882110
Cu 5.44899813 7.23399054 9.03961298
Cu 5.42925133 9.04433123 7.23106657
Cu 7.22583526 0.00308679 10.83074398
Cu 7.21037573 1.82074976 1.80249199
Cu 9.04443210 0.01525488 1.81963104
Cu 9.03153999 1.81017791 10.83284451
Cu 7.22856058 0.00997883 3.61501452
Cu 7.20061395 1.78396057 5.41396399
Cu 9.05080268 0.00144476 5.42360115
Cu 9.02370892 1.80840124 3.59155482
Cu 7.23323350 0.01144478 7.22137631
Cu 7.24069992 1.79951698 9.03868611
Cu 9.03580138 0.00036030 9.05272577
Cu 9.04617370 1.79991197 7.20145869
Cu 7.23880709 3.62218344 0.00138907
Cu 7.22398569 5.43819989 1.78895264
Cu 9.02915277 3.59948205 1.81098638
Cu 9.03239208 5.44349126 10.84484602
Cu 7.22716615 3.62027143 3.60723679
Cu 7.21860795 5.42726945 5.41726412
Cu 9.04703442 3.61776358 5.42329036
Cu 9.03784003 5.42096007 3.61881233
Cu 7.22565842 3.59431230 7.23043490
Cu 7.22503950 5.40779456 9.04518705
Cu 9.03329736 3.59651774 9.03643590
Cu 9.03021991 5.40444400 7.23289443
Cu 7.21895704 7.23677764 10.83549028
Cu 7.23965913 9.04130447 1.80833756
Cu 9.02935504 7.23863877 1.81233039
Cu 9.03339685 9.04278575 10.83422630
Cu 7.21662283 7.22845994 3.61541401
Cu 7.23402295 9.03758460 5.43484456
Cu 9.02398212 7.23515568 5.42451765
Cu 9.05096108 9.03818305 3.61795201
Cu 7.24761207 7.23746608 7.23590007
Cu 7.22567563 9.03837620 9.02029390
Cu 9.02855245 7.23597349 9.01908002
Cu 9.03817293 9.03716741 7.23369479
108
Step=100 Lattice="10.845 0 0  0 10.845 0  0 0 10.845" Properties=species:S:1:pos:R:3
Cu 10.83344926 10.84023306 0.01420675
Cu 0.00190627 1.81718667 1.81363803
Cu 1.79993194 0.00547800 1.80360255
Cu 1.80340093 1.80792671 10.82752065
Cu 0.01301230 10.83688151 3.62582229
Cu 0.00113304 1.82397339 5.41466608
Cu 1.80358369 0.00312211 5.39748087
Cu 1.81652693 1.82410510 3.62721916
Cu 0.00811285 10.84263683 7.24410472
Cu 0.01162171 1.81120772 9.03726639
Cu 1.80314827 10.83051714 9.05102939
Cu 1.78274691 1.80263070 7.23151542
Cu 0.00919282 3.63406510 0.01088836
Cu 10.84124459 5.42995519 1.79303255
Cu 1.82324534 3.61264526 1.79957011
Cu 1.79999808 5.42114066 10.84025563
Cu 0.02526878 3.60629308 3.61492323
Cu 10.84487935 5.42218659 5.42282471
Cu 1.80173882 3.60775867 5.41259572
Cu 1.79041347 5.42427230 3.62565976
Cu 10.83852736 3.60805057 7.22615865
Cu 10.83931983 5.40565602 9.05254067
Cu 1.81201609 3.60634689 9.04048521
Cu 1.80218009 5.41940382 7.23375944
Cu 0.01025075 7.24644151 0.01876071
Cu 10.84181559 9.03125317 1.80824399
Cu 1.80860721 7.22101083 1.80022504
Cu 1.81629466 9.05525728 10.84217827
Cu 10.83735807 7.22611616 3.60353837
Cu 10.84163304 9.04147859 5.42135965
Cu 1.82098850 7.23106098 5.42761324
Cu 1.80544121 9.05146909 3.60086854
Cu 10.84113891 7.21608715 7.23895930
Cu 0.00910224 9.03099824 9.05583974
Cu 1.80374707 7.21371612 9.03407233
Cu 1.81117226 9.03421602 7.25508477
Cu 3.62427046 0.01867045 0.01513433
Cu 3.59564238 1.80263733 1.77664763
Cu 5.41483447 0.01179682 1.79778117
Cu 5.41502383 1.81057078 0.00835393
Cu 3.61064448 10.84146799 3.62361404
Cu 3.61739686 1.80365643 5.42576658
Cu 5.42286849 0.00206578 5.44464749
Cu 5.41849366 1.80078619 3.63047684
Cu 3.60657215 0.01860728 7.22761536
Cu 3.61550742 1.81506080 9.05075919
Cu 5.43322695 10.84206242 9.03299940
Cu 5.42592739 1.80835085 7.22262173
Cu 3.61926386 3.62555963 0.00146341
Cu 3.63220132 5.42640500 1.80542498
Cu 5.42316585 3.60803060 1.79563855
Cu 5.42741295 5.41225125 10.84058524
Cu 3.61367770 3.61864217 3.61976500
Cu 3.61522639 5.40013446 5.41997048
Cu 5.41338310 3.61308875 5.43336646
Cu 5.43116054 5.42415458 3.62027583
Cu 3.59785059 3.61645839 7.23673890
Cu 3.60672812 5.42641725 9.03287266
Cu 5.43332620 3.62666507 9.03118418
Cu 5.43856567 5.41970621 7.25282109
Cu 3.60917643 7.22993674 0.00203654
Cu 3.60622208 9.01744484 1.79818070
Cu 5.43425567 7.22568227 1.80344006
Cu 5.43914696 9.04237568 0.00756768
Cu 3.62411411 7.21903706 3.61604303
Cu 3.61627944 9.03502976 5.40994617
Cu 5.42733619 7.21069244 5.41177129
Cu 5.41303914 9.03225424 3.62408283
Cu 3.63333658 7.24859884 7.23870483
Cu 3.61969552 9.01064809 9.04997148
Cu 5.45165169 7.23438559 9.03982930
Cu 5.42992053 9.04501682 7.23116749
Cu 7.22541972 0.00339904 10.82932993
Cu 7.20839979 1.82206809 1.80198119
Cu 9.04511900 0.01678381 1.82083849
Cu 9.03095361 1.81044529 10.83164142
Cu 7.22840957 0.01095823 3.61501242
Cu 7.19769001 1.78162011 5.41309685
Cu 9.05214179 0.00159475 5.42369988
Cu 9.02232695 1.80849770 3.58922810
Cu 7.23357755 0.01259381 7.22051929
Cu 7.24176357 1.79871713 9.03879846
Cu 9.03564211 0.00039938 9.05423311
Cu 9.04704553 1.79914219 7.19859876
Cu 7.23969308 3.62290074 0.00152636
Cu 7.22339096 5.43976983 1.78709693
Cu 9.02832044 3.59794691 1.81133074
Cu 9.03188132 5.44560514 10.84482374
Cu 7.22687150 3.62080641 3.60646466
Cu 7.21747393 5.42773034 5.41675408
Cu 9.04796865 3.61803151 5.42334661
Cu 9.03787198 5.42079852 3.61918320
Cu 7.22523655 3.59222364 7.23046291
Cu 7.22456598 5.40631802 9.04595774
Cu 9.03288303 3.59465867 9.03632828
Cu 9.02948066 5.40262296 7.23318615
Cu 7.21786188 7.23746959 10.83452827
Cu 7.24063163 9.04170432 1.80842956
Cu 9.02852417 7.23950914 1.81281183
Cu 9.03297318 9.04330975 10.83314909
Cu 7.21529300 7.22831832 3.61545237
Cu 7.23442527 9.03760236 5.43607299
Cu 9.02263257 7.23566434 5.42472089
Cu 9.05229868 9.03825786 3.61825283
Cu 7.24936853 7.23820033 7.23648422
Cu 7.22524802 9.03848222 9.01856482
Cu 9.02766292 7.23656570 9.01724783
Cu 9.03825946 9.03715682 7.23406975
108
Step=200 Lattice="10.845 0 0  0 10.845 0  0 0 10.845" Properties=species:S:1:pos:R:3
Cu 10.83239344 10.83981172 0.01550647
Cu 0.00209898 1.81807034 1.81418993
Cu 1.79923983 0.00598806 1.80324988
Cu 1.80300966 1.80796684 10.82593465
Cu 0.01418984 10.83616947 3.62678805
Cu 0.00123151 1.82545307 5.41393601
Cu 1.80322458 0.00340424 5.39523648
Cu 1.81736599 1.82560131 3.62830498
Cu 0.00885086 10.84241127 7.24538846
Cu 0.01266028 1.81153972 9.03725502
Cu 1.80277322 10.82920896 9.05227056
Cu 1.78050896 1.80218285 7.23165025
Cu 0.01000842 3.63578202 0.01188536
Cu 10.84088763 5.43062176 1.79173045
Cu 1.82468441 3.61244903 1.79884751
Cu 1.79933217 5.42101991 10.83982621
Cu 0.02754355 3.60551560 3.61489237
Cu 10.84485966 5.42216845 5.42286100
Cu 1.80122333 3.60710450 5.41172226
Cu 1.78886970 5.42443839 3.62661143
Cu 10.83794441 3.60742519 7.22581905
Cu 10.83878306 5.40412507 9.05390854
Cu 1.81241955 3.60556857 9.04075309
Cu 1.80169483 5.41911658 7.23409687
Cu 0.01116898 7.24794097 0.02044940
Cu 10.84152576 9.03069665 1.80830609
Cu 1.80871638 7.22018606 1.79957380
Cu 1.81710006 9.05686591 10.84193354
Cu 10.83667066 7.22576324 3.60250922
Cu 10.84134646 9.04181830 5.42127738
Cu 1.82221221 7.23116671 5.42808362
Cu 1.80525582 9.05270648 3.59957475
Cu 10.84077856 7.21481824 7.23977024
Cu 0.00991673 9.03040071 9.05750931
Cu 1.80339857 7.21222912 9.03377359
Cu 1.81150830 9.03392181 7.25735112
Cu 3.62511703 0.02034031 0.01648345
Cu 3.59388136 1.80220972 1.77387761
Cu 5.41413704 0.01285601 1.79692015
Cu 5.41435987 1.81086785 0.00907839
Cu 3.61025790 10.84115416 3.62436792
Cu 3.61760132 1.80331650 5.42607585
Cu 5.42288168 0.00222711 5.44665282
Cu 5.41809391 1.80018318 3.63186245
Cu 3.60578690 0.02028649 7.22742108
Cu 3.61556498 1.81574542 9.05195278
Cu 5.43418061 10.84180247 9.03258306
Cu 5.42621931 1.80843368 7.22198490
Cu 3.61965430 3.62653146 0.00157990
Cu 3.63376283 5.42675656 1.80524101
Cu 5.42321230 3.60740142 1.79457654
Cu 5.42784739 5.41132857 10.84017199
Cu 3.61357111 3.61897062 3.62017786
Cu 3.61524696 5.39811064 5.41976520
Cu 5.41255537 3.61291951 5.43436139
Cu 5.43194525 5.42427753 3.62073653
Cu 3.59628865 3.61657858 7.23735759
Cu 3.60598858 5.42678263 9.03245213
Cu 5.43430058 3.62769765 9.03061741
Cu 5.44002382 5.41945962 7.25488557
Cu 3.60866476 7.22991200 0.00221369
Cu 3.60543587 9.01562987 1.79733704
Cu 5.43532113 7.22530234 1.80306270
Cu 5.44065258 9.04282289 0.00825604
Cu 3.62493071 7.21802737 3.61613172
Cu 3.61639068 9.03480637 5.40882154
Cu 5.42777303 7.20894322 5.41082769
Cu 5.41218747 9.03179313 3.62489787
Cu 3.63502031 7.25026970 7.23948649
Cu 3.62014718 9.00822998 9.05112180
Cu 5.45429418 7.23477760 9.04004589
Cu 5.43058509 9.04569994 7.23126606
Cu 7.22500636 0.00371093 10.82792579
Cu 7.20642907 1.82337831 1.80146971
Cu 9.04580097 0.01830682 1.82203881
Cu 9.03037276 1.81071164 10.83044768
Cu 7.22825704 0.01192777 3.61500915
Cu 7.19478361 1.77929429 5.41222982
Cu 9.05347720 0.00174538 5.42379467
Cu 9.02095034 1.80859564 3.58691723
Cu 7.23392591 0.01373870 7.21966785
Cu 7.24282030 1.79792069 9.03890825
Cu 9.03548681 0.00043896 9.05572905
Cu 9.04791443 1.79837292 7.19575012
Cu 7.24057655 3.62361424 0.00166249
Cu 7.22280082 5.44133247 1.78524946
Cu 9.02749263 3.59642364 1.81167192
Cu 9.03137281 5.44771379 10.84479972
Cu 7.22657490 3.62134096 3.60569740
Cu 7.21634669 5.42818453 5.41625037
Cu 9.04889311 3.61829590 5.42339603
Cu 9.03790318 5.42063572 3.61954952
Cu 7.22481998 3.59013878 7.23048621
Cu 7.22410139 5.40484670 9.04672531
Cu 9.03247227 3.59280503 9.03622060
Cu 9.02874139 5.40080583 7.23347731
Cu 7.21677469 7.23816237 10.83356761
Cu 7.24160144 9.04210799 1.80852367
Cu 9.02769262 7.24037751 1.81329071
Cu 9.03254751 9.04383001 10.83207700
Cu 7.21397153 7.22818089 3.61548965
Cu 7.23482564 9.03762276 5.43729398
Cu 9.02128996 7.23616861 5.42492342
Cu 9.05362766 9.03833424 3.61855392
Cu 7.25111537 7.23892738 7.23706363
Cu 7.22482413 9.03859320 9.01684135
Cu 9.02677913 7.23715347 9.01542698
Cu 9.03835135 9.03715271 7.23444456
108
Step=300 Lattice="10.845 0 0  0 10.845 0  0 0 10.845" Properties=species:S:1:pos:R:3
Cu 10.83134034 10.83939522 0.01680325
Cu 0.00229580 1.81895143 1.81473802
Cu 1.79854930 0.00649923 1.80289919
Cu 1.80261493 1.80800696 10.82435552
Cu 0.01536110 10.83546721 3.62774548
Cu 0.00132836 1.82692224 5.41320384
Cu 1.80286628 0.00368474 5.39300863
Cu 1.81820661 1.82708803 3.62938012
Cu 0.00958604 10.84218341 7.24666766
Cu 0.01368991 1.81186916 9.03724645
Cu 1.80240489 10.82790814 9.05350970
Cu 1.77828269 1.80173535 7.23178353
Cu 0.01081561 3.63748784 0.01288034
Cu 10.84052821 5.43128298 1.79043695
Cu 1.82611985 3.61225820 1.79812743
Cu 1.79867316 5.42090041 10.83939899
Cu 0.02980365 3.60474508 3.61485527
Cu 10.84483789 5.42215306 5.42289898
Cu 1.80071204 3.60645430 5.41085947
Cu 1.78733443 5.42460526 3.62755500
Cu 10.83736519 3.60680412 7.22548324
Cu 10.83824324 5.40260012 9.05527101
Cu 1.81281964 3.60479556 9.04101925
Cu 1.80121081 5.41882894 7.23443160
Cu 0.01208053 7.24943584 0.02212723
Cu 10.84123691 9.03014527 1.80836694
Cu 1.80882726 7.21936256 1.79892801
Cu 1.81790389 9.05846693 10.84169299
Cu 10.83598778 7.22541193 3.60148727
Cu 10.84106618 9.04215071 5.42120103
Cu 1.82343071 7.23127439 5.42855366
Cu 1.80507180 9.05393049 3.59828358
Cu 10.84041738 7.21355317 7.24057699
Cu 0.01072498 9.02980348 9.05917305
Cu 1.80304924 7.21074617 9.03347928
Cu 1.81184371 9.03362950 7.25960538
Cu 3.62596096 0.02199624 0.01782018
Cu 3.59212666 1.80178772 1.77112721
Cu 5.41344230 0.01390778 1.79606859
Cu 5.41370264 1.81116854 0.00979092
Cu 3.60987542 10.84084358 3.62511158
Cu 3.61780166 1.80298034 5.42638716
Cu 5.42288935 0.00238052 5.44864830
Cu 5.41768664 1.79958429 3.63323706
Cu 3.60499980 0.02195618 7.22723304
Cu 3.61562525 1.81642669 9.05313879
Cu 5.43512499 10.84154539 9.03216664
Cu 5.42650493 1.80851775 7.22135924
Cu 3.62004372 3.62750270 0.00169157
Cu 3.63531784 5.42710608 1.80505917
Cu 5.42325496 3.60677605 1.79352299
Cu 5.42827702 5.41041199 10.83975713
Cu 3.61346851 3.61929708 3.62058376
Cu 3.61526734 5.39609704 5.41956698
Cu 5.41173130 3.61275204 5.43535422
Cu 5.43272613 5.42439290 3.62119031
Cu 3.59473201 3.61669488 7.23797526
Cu 3.60525518 5.42714899 9.03203347
Cu 5.43526850 3.62871860 9.03005489
Cu 5.44147574 5.41921614 7.25693938
Cu 3.60815953 7.22988236 0.00238801
Cu 3.60465582 9.01382397 1.79649774
Cu 5.43638141 7.22492721 1.80268486
Cu 5.44215031 9.04326972 0.00894198
Cu 3.62574108 7.21701823 3.61621849
Cu 3.61650015 9.03458423 5.40770569
Cu 5.42820703 7.20720227 5.40989622
Cu 5.41134146 9.03133789 3.62570700
Cu 3.63670200 7.25192899 7.24026245
Cu 3.62060337 9.00582690 9.05227199
Cu 5.45692450 7.23516627 9.04026270
Cu 5.43124458 9.04638035 7.23136203
Cu 7.22459538 0.00402242 10.82653248
Cu 7.20446413 1.82467961 1.80095750
Cu 9.04647758 0.01982334 1.82323133
Cu 9.02979795 1.81097689 10.82926421
Cu 7.22810285 0.01288656 3.61500457
Cu 7.19189643 1.77698452 5.41136300
Cu 9.05480852 0.00189664 5.42388513
Cu 9.01957958 1.80869520 3.58462370
Cu 7.23427894 0.01487901 7.21882253
Cu 7.24386939 1.79712799 9.03901521
Cu 9.03533588 0.00047901 9.05721250
Cu 9.04878006 1.79760430 7.19291386
Cu 7.24145727 3.62432355 0.00179733
Cu 7.22221566 5.44288709 1.78341102
Cu 9.02666977 3.59491335 1.81200955
Cu 9.03086675 5.44981674 10.84477382
Cu 7.22627617 3.62187498 3.60493549
Cu 7.21522691 5.42863142 5.41575357
Cu 9.04980693 3.61855649 5.42343802
Cu 9.03793356 5.42047162 3.61991089
Cu 7.22440917 3.58805812 7.23050437
Cu 7.22364663 5.40338116 9.04748945
Cu 9.03206540 3.59095740 9.03611281
Cu 9.02800212 5.39899302 7.23376786
Cu 7.21569629 7.23885601 10.83260849
Cu 7.24256828 9.04251580 1.80862007
Cu 9.02686038 7.24124369 1.81376678
Cu 9.03211965 9.04434614 10.83101055
Cu 7.21265919 7.22804803 3.61552574
Cu 7.23522385 9.03764602 5.43850683
Cu 9.01995495 7.23666807 5.42512512
Cu 9.05494722 9.03841233 3.61885530
Cu 7.25285162 7.23964650 7.23763776
Cu 7.22440436 9.03870963 9.01512407
Cu 9.02590166 7.23773636 9.01361857
Cu 9.03844913 9.03715567 7.23481915
108
Step=400 Lattice="10.845 0 0  0 10.845 0  0 0 10.845" Properties=species:S:1:pos:R:3
Cu 10.83029023 10.83898396 0.01809679
Cu 0.00249702 1.81982970 1.81528198
Cu 1.79786049 0.00701158 1.80255068
Cu 1.80221646 1.80804705 10.82278390
Cu 0.01652544 10.83477554 3.62869387
Cu 0.00142344 1.82837997 5.41246942
Cu 1.80250892 0.00396346 5.39079874
Cu 1.81904891 1.82856438 3.63044368
Cu 0.01031807 10.84195299 7.24794193
Cu 0.01470977 1.81219581 9.03724094
Cu 1.80204378 10.82661535 9.05474656
Cu 1.77606909 1.80128827 7.23191509
Cu 0.01161368 3.63918152 0.01387310
Cu 10.84016618 5.43193845 1.78915282
Cu 1.82755131 3.61207322 1.79741014
Cu 1.79802166 5.42078229 10.83897417
Cu 0.03204783 3.60398215 3.61481140
Cu 10.84481389 5.42214062 5.42293879
Cu 1.80020533 3.60580851 5.41000830
Cu 1.78580841 5.42477299 3.62848982
Cu 10.83678999 3.60618777 7.22515154
Cu 10.83770018 5.40108171 9.05662754
Cu 1.81321607 3.60402834 9.04128356
Cu 1.80072809 5.41854086 7.23476334
Cu 0.01298489 7.25092567 0.02379329
Cu 10.84094910 9.02959948 1.80842650
Cu 1.80893995 7.21854048 1.79828819
Cu 1.81870600 9.06005965 10.84145702
Cu 10.83530980 7.22506238 3.60047309
Cu 10.84079273 9.04247518 5.42113107
Cu 1.82464359 7.23138412 5.42902335
Cu 1.80488929 9.05513998 3.59699527
Cu 10.84005538 7.21229228 7.24137920
Cu 0.01152651 9.02920656 9.06083044
Cu 1.80269899 7.20926768 9.03318975
Cu 1.81217844 9.03333915 7.26184657
Cu 3.62680194 0.02363697 0.01914341
Cu 3.59037882 1.80137186 1.76839810
Cu 5.41275053 0.01495154 1.79522731
Cu 5.41305272 1.81147314 0.01049053
Cu 3.60949739 10.84053654 3.62584423
Cu 3.61799759 1.80264825 5.42670065
Cu 5.42289097 0.00252526 5.45063309
Cu 5.41727128 1.79898985 3.63459970
Cu 3.60421073 0.02361557 7.22705168
Cu 3.61568845 1.81710430 9.05431658
Cu 5.43605934 10.84129142 9.03175017
Cu 5.42678370 1.80860317 7.22074565
Cu 3.62043198 3.62847326 0.00179801
Cu 3.63686582 5.42745342 1.80487967
Cu 5.42329351 3.60615489 1.79247863
Cu 5.42870147 5.40950207 10.83934055
Cu 3.61337020 3.61962138 3.62098212
Cu 3.61528746 5.39409456 5.41937633
Cu 5.41091126 3.61258646 5.43634475
Cu 5.43350280 5.42450009 3.62163655
Cu 3.59318114 3.61680695 7.23859177
Cu 3.60452842 5.42751639 9.03161688
Cu 5.43622936 3.62972688 9.02949703
Cu 5.44292090 5.41897607 7.25898155
Cu 3.60766121 7.22984742 0.00255927
Cu 3.60388248 9.01202792 1.79566323
Cu 5.43743598 7.22455732 1.80230657
Cu 5.44363945 9.04371617 0.00962530
Cu 3.62654471 7.21600971 3.61630319
Cu 3.61660769 9.03436344 5.40659935
Cu 5.42863782 7.20547034 5.40897792
Cu 5.41050159 9.03088898 3.62650971
Cu 3.63838144 7.25357577 7.24103222
Cu 3.62106438 9.00344005 9.05342203
Cu 5.45954157 7.23555130 9.04047967
Cu 5.43189861 9.04705780 7.23145518
Cu 7.22418698 0.00433347 10.82515094
Cu 7.20250553 1.82597121 1.80044453
Cu 9.04714840 0.02133276 1.82441539
Cu 9.02922971 1.81124098 10.82809194
Cu 7.22794682 0.01383366 3.61499851
Cu 7.18903011 1.77469221 5.41049646
Cu 9.05613536 0.00204851 5.42397086
Cu 9.01821515 1.80879655 3.58234905
Cu 7.23463699 0.01601430 7.21798387
Cu 7.24491016 1.79633940 9.03911905
Cu 9.03518973 0.00051955 9.05868238
Cu 9.04964208 1.79683647 7.19009103
Cu 7.24233500 3.62502829 0.00193079
Cu 7.22163590 5.44443298 1.78158240
Cu 9.02585230 3.59341714 1.81234324
Cu 9.03036335 5.45191354 10.84474591
Cu 7.22597515 3.62240839 3.60417938
Cu 7.21411528 5.42907039 5.41526428
Cu 9.05070928 3.61881303 5.42347200
Cu 9.03796304 5.42030615 3.62026693
Cu 7.22400458 3.58598205 7.23051697
Cu 7.22320257 5.40192197 9.04824983
Cu 9.03166274 3.58911634 9.03600481
Cu 9.02726282 5.39718495 7.23405777
Cu 7.21462750 7.23955056 10.83165112
Cu 7.24353185 9.04292809 1.80871897
Cu 9.02602748 7.24210747 1.81423983
Cu 9.03168941 9.04485777 10.82995022
Cu 7.21135679 7.22792009 3.61556053
Cu 7.23561968 9.03767239 5.43971086
Cu 9.01862822 7.23716232 5.42532586
Cu 9.05625658 9.03849230 3.61915698
Cu 7.25457631 7.24035699 7.23820608
Cu 7.22398914 9.03883199 9.01341361
Cu 9.02503107 7.23831391 9.01182371
Cu 9.03855329 9.03716625 7.23519348
108
Step=500 Lattice="10.845 0 0  0 10.845 0  0 0 10.845" Properties=species:S:1:pos:R:3
Cu 10.82924341 10.83857834 0.01938679
Cu 0.00270295 1.82070491 1.81582146
Cu 1.79717355 0.00752515 1.80220453
Cu 1.80181399 1.80808705 10.82122041
Cu 0.01768224 10.83409530 3.62963248
Cu 0.00151665 1.82982534 5.41173255
Cu 1.80215264 0.00424028 5.38860824
Cu 1.81989299 1.83002948 3.63149475
Cu 0.01104668 10.84171978 7.24921088
Cu 0.01571908 1.81251946 9.03723876
Cu 1.80169042 10.82533129 9.05598086
Cu 1.77386918 1.80084166 7.23204473
Cu 0.01240195 3.64086205 0.01486347
Cu 10.83980139 5.43258781 1.78787882
Cu 1.82897842 3.61189451 1.79669591
Cu 1.79737827 5.42066568 10.83855197
Cu 0.03427481 3.60322745 3.61476025
Cu 10.84478750 5.42213133 5.42298058
Cu 1.79970358 3.60516755 5.40916970
Cu 1.78429236 5.42494166 3.62941524
Cu 10.83621916 3.60557655 7.22482428
Cu 10.83715368 5.39957037 9.05797757
Cu 1.81360856 3.60326740 9.04154593
Cu 1.80024670 5.41825231 7.23509185
Cu 0.01388160 7.25241002 0.02544667
Cu 10.84066242 9.02905974 1.80848477
Cu 1.80905459 7.21771994 1.79765483
Cu 1.81950623 9.06164341 10.84122605
Cu 10.83463710 7.22471475 3.59946726
Cu 10.84052662 9.04279109 5.42106795
Cu 1.82585043 7.23149601 5.42949266
Cu 1.80470844 9.05633383 3.59571009
Cu 10.83969252 7.21103592 7.24217650
Cu 0.01232083 9.02860996 9.06248094
Cu 1.80234774 7.20779405 9.03290533
Cu 1.81251247 9.03305084 7.26407375
Cu 3.62763962 0.02526123 0.02045202
Cu 3.58863835 1.80096270 1.76569191
Cu 5.41206201 0.01598671 1.79439715
Cu 5.41241066 1.81178192 0.01117624
Cu 3.60912421 10.84023332 3.62656508
Cu 3.61818879 1.80232054 5.42701646
Cu 5.42288602 0.00266060 5.45260630
Cu 5.41684730 1.79840017 3.63594943
Cu 3.60341960 0.02526391 7.22687745
Cu 3.61575480 1.81777796 9.05548555
Cu 5.43698292 10.84104081 9.03133367
Cu 5.42705508 1.80869003 7.22014503
Cu 3.62081894 3.62944307 0.00189884
Cu 3.63840622 5.42779843 1.80470270
Cu 5.42332765 3.60553834 1.79144416
Cu 5.42912035 5.40859935 10.83892212
Cu 3.61327649 3.61994336 3.62137237
Cu 3.61530727 5.39210406 5.41919375
Cu 5.41009560 3.61242290 5.43733275
Cu 5.43427489 5.42459850 3.62207462
Cu 3.59163654 3.61691445 7.23920698
Cu 3.60380882 5.42788486 9.03120253
Cu 5.43718256 3.63072144 9.02894421
Cu 5.44435877 5.41873970 7.26101113
Cu 3.60717030 7.22980674 0.00272723
Cu 3.60311636 9.01024248 1.79483390
Cu 5.43848433 7.22419309 1.80192782
Cu 5.44511931 9.04416224 0.01030580
Cu 3.62734111 7.21500191 3.61638568
Cu 3.61671315 9.03414411 5.40550327
Cu 5.42906506 7.20374815 5.40807382
Cu 5.40966839 9.03044686 3.62730552
Cu 3.64005840 7.25520910 7.24179530
Cu 3.62153053 9.00107063 9.05457186
Cu 5.46214427 7.23593242 9.04069670
Cu 5.43254676 9.04773205 7.23154528
Cu 7.22378133 0.00464406 10.82378211
Cu 7.20055384 1.82725231 1.79993076
Cu 9.04781303 0.02283450 1.82559033
Cu 9.02866853 1.81150385 10.82693181
Cu 7.22778883 0.01476819 3.61499080
Cu 7.18618632 1.77241876 5.40963033
Cu 9.05745733 0.00220097 5.42405147
Cu 9.01685751 1.80889986 3.58009477
Cu 7.23500041 0.01714412 7.21715245
Cu 7.24594190 1.79555527 9.03921948
Cu 9.03504876 0.00056056 9.06013762
Cu 9.05050018 1.79606955 7.18728273
Cu 7.24320949 3.62572807 0.00206277
Cu 7.22106196 5.44596942 1.77976439
Cu 9.02504062 3.59193608 1.81267262
Cu 9.02986279 5.45400372 10.84471586
Cu 7.22567166 3.62294109 3.60342953
Cu 7.21301246 5.42950085 5.41478306
Cu 9.05159934 3.61906529 5.42349735
Cu 9.03799156 5.42013925 3.62061729
Cu 7.22360669 3.58391098 7.23052359
Cu 7.22277014 5.40046968 9.04900615
Cu 9.03126461 3.58728240 9.03589653
Cu 9.02652349 5.39538202 7.23434703
Cu 7.21356917 7.24024603 10.83069570
Cu 7.24449187 9.04334517 1.80882056
Cu 9.02519393 7.24296865 1.81470964
Cu 9.03125663 9.04536452 10.82889654
Cu 7.21006510 7.22779744 3.61559390
Cu 7.23601294 9.03770210 5.44090538
Cu 9.01731045 7.23765094 5.42552553
Cu 9.05755495 9.03857430 3.61945897
Cu 7.25628845 7.24105812 7.23876805
Cu 7.22357890 9.03896077 9.01171054
Cu 9.02416792 7.23888568 9.01004349
Cu 9.03866435 9.03718502 7.23556749
108
Step=600 Lattice="10.845 0 0  0 10.845 0  0 0 10.845" Properties=species:S:1:pos:R:3
Cu 10.82820014 10.83817876 0.02067295
Cu 0.00291386 1.82157685 1.81635615
Cu 1.79648861 0.00804000 1.80186093
Cu 1.80140725 1.80812692 10.81966568
Cu 0.01883082 10.83342731 3.63056059
Cu 0.00160785 1.83125744 5.41099306
Cu 1.80179760 0.00451508 5.38643853
Cu 1.82073897 1.83148244 3.63253243
Cu 0.01177157 10.84148350 7.25047415
Cu 0.01671701 1.81283990 9.03724019
Cu 1.80134530 10.82405665 9.05721235
Cu 1.77168393 1.80039560 7.23217226
Cu 0.01317973 3.64252839 0.01585125
Cu 10.83943369 5.43323067 1.78661571
Cu 1.83040080 3.61172250 1.79598498
Cu 1.79674358 5.42055071 10.83813256
Cu 0.03648331 3.60248163 3.61470123
Cu 10.84475859 5.42212538 5.42302451
Cu 1.79920719 3.60453188 5.40834464
Cu 1.78278704 5.42511138 3.63033065
Cu 10.83565298 3.60497085 7.22450175
Cu 10.83660358 5.39806663 9.05932051
Cu 1.81399682 3.60251325 9.04180624
Cu 1.79976649 5.41796326 7.23541685
Cu 0.01477018 7.25388844 0.02708649
Cu 10.84037695 9.02852651 1.80854174
Cu 1.80917130 7.21690108 1.79702846
Cu 1.82030443 9.06321752 10.84100048
Cu 10.83397003 7.22436921 3.59847034
Cu 10.84026836 9.04309782 5.42101215
Cu 1.82705083 7.23161019 5.42996157
Cu 1.80452943 9.05751094 3.59442826
Cu 10.83932880 7.20978442 7.24296851
Cu 0.01310747 9.02801368 9.06412402
Cu 1.80199539 7.20632567 9.03262637
Cu 1.81284567 9.03276462 7.26628599
Cu 3.62847367 0.02686774 0.02174488
Cu 3.58690577 1.80056077 1.76301029
Cu 5.41137704 0.01701271 1.79357893
Cu 5.41177703 1.81209517 0.01184707
Cu 3.60875622 10.83993422 3.62727338
Cu 3.61837496 1.80199752 5.42733472
Cu 5.42287397 0.00278581 5.45456708
Cu 5.41641415 1.79781558 3.63728532
Cu 3.60262630 0.02690045 7.22671075
Cu 3.61582452 1.81844739 9.05664508
Cu 5.43789497 10.84079380 9.03091719
Cu 5.42731856 1.80877843 7.21955825
Cu 3.62120446 3.63041203 0.00199365
Cu 3.63993854 5.42814098 1.80452844
Cu 5.42335705 3.60492682 1.79042028
Cu 5.42953329 5.40770438 10.83850174
Cu 3.61318771 3.62026288 3.62175398
Cu 3.61532670 5.39012645 5.41901973
Cu 5.40928468 3.61226149 5.43831802
Cu 5.43504202 5.42468753 3.62250391
Cu 3.59009870 3.61701705 7.23982073
Cu 3.60309690 5.42825443 9.03079061
Cu 5.43812750 3.63170123 9.02839684
Cu 5.44578882 5.41850736 7.26302716
Cu 3.60668726 7.22975991 0.00289169
Cu 3.60235799 9.00846842 1.79401017
Cu 5.43952596 7.22383495 1.80154864
Cu 5.44658921 9.04460793 0.01098327
Cu 3.62812978 7.21399490 3.61646581
Cu 3.61681637 9.03392634 5.40441817
Cu 5.42948839 7.20203646 5.40718491
Cu 5.40884235 9.03001195 3.62809393
Cu 3.64173266 7.25682804 7.24255120
Cu 3.62200210 8.99871983 9.05572144
Cu 5.46473153 7.23630932 9.04091370
Cu 5.43318865 9.04840285 7.23163210
Cu 7.22337861 0.00495413 10.82242688
Cu 7.19860961 1.82852211 1.79941618
Cu 9.04847103 0.02432794 1.82675547
Cu 9.02811492 1.81176541 10.82578473
Cu 7.22762871 0.01568924 3.61498127
Cu 7.18336669 1.77016557 5.40876471
Cu 9.05877405 0.00235396 5.42412656
Cu 9.01550712 1.80900529 3.57786236
Cu 7.23536962 0.01826803 7.21632879
Cu 7.24696392 1.79477593 9.03931622
Cu 9.03491335 0.00060204 9.06157716
Cu 9.05135402 1.79530370 7.18449001
Cu 7.24408051 3.62642250 0.00219318
Cu 7.22049424 5.44749571 1.77795776
Cu 9.02423516 3.59047125 1.81299731
Cu 9.02936529 5.45608685 10.84468353
Cu 7.22536553 3.62347297 3.60268637
Cu 7.21191915 5.42992219 5.41431050
Cu 9.05247631 3.61931304 5.42351349
Cu 9.03801903 5.41997089 3.62096158
Cu 7.22321596 3.58184530 7.23052383
Cu 7.22235045 5.39902486 9.04975809
Cu 9.03087133 3.58545615 9.03578788
Cu 9.02578413 5.39358465 7.23463560
Cu 7.21252212 7.24094245 10.82974247
Cu 7.24544806 9.04376736 1.80892502
Cu 9.02435976 7.24382705 1.81517598
Cu 9.03082111 9.04586600 10.82784999
Cu 7.20878490 7.22768044 3.61562576
Cu 7.23640342 9.03773540 5.44208971
Cu 9.01600230 7.23813353 5.42572399
Cu 9.05884156 9.03865846 3.61976128
Cu 7.25798706 7.24174920 7.23932311
Cu 7.22317405 9.03909646 9.01001547
Cu 9.02331279 7.23945122 9.00827903
Cu 9.03878281 9.03721255 7.23594110
108
Step=700 Lattice="10.845 0 0  0 10.845 0  0 0 10.845" Properties=species:S:1:pos:R:3
Cu 10.82716072 10.83778560 0.02195497
Cu 0.00313003 1.82244526 1.81688570
Cu 1.79580582 0.00855617 1.80152006
Cu 1.80099598 1.80816662 10.81812033
Cu 0.01997055 10.83277237 3.63147748
Cu 0.00169695 1.83267537 5.41025078
Cu 1.80144395 0.00478774 5.38429102
Cu 1.82158696 1.83292239 3.63355583
Cu 0.01249244 10.84124390 7.25173135
Cu 0.01770276 1.81315691 9.03724570
Cu 1.80100892 10.82279213 9.05844075
Cu 1.76951434 1.79995015 7.23229748
Cu 0.01394634 3.64417950 0.01683626
Cu 10.83906296 5.43386669 1.78536426
Cu 1.83181808 3.61155763 1.79527761
Cu 1.79611820 5.42043751 10.83771614
Cu 0.03867207 3.60174531 3.61463361
Cu 10.84472699 5.42212296 5.42307071
Cu 1.79871653 3.60390193 5.40753407
Cu 1.78129318 5.42528223 3.63123543
Cu 10.83509178 3.60437108 7.22418426
Cu 10.83604969 5.39657102 9.06065582
Cu 1.81438057 3.60176636 9.04206438
Cu 1.79928747 5.41767365 7.23573808
Cu 0.01565016 7.25536048 0.02871186
Cu 10.84009276 9.02800024 1.80859740
Cu 1.80929018 7.21608401 1.79640958
Cu 1.82110045 9.06478132 10.84078073
Cu 10.83330893 7.22402591 3.59748288
Cu 10.84001846 9.04339477 5.42096410
Cu 1.82824438 7.23172672 5.43043007
Cu 1.80435240 9.05867023 3.59315005
Cu 10.83896420 7.20853811 7.24375489
Cu 0.01388596 9.02741772 9.06575918
Cu 1.80164185 7.20486295 9.03235317
Cu 1.81317782 9.03248056 7.26848239
Cu 3.62930372 0.02845522 0.02302087
Cu 3.58518161 1.80016665 1.76035485
Cu 5.41069590 0.01802898 1.79277347
Cu 5.41115238 1.81241316 0.01250207
Cu 3.60839379 10.83963952 3.62796836
Cu 3.61855582 1.80167950 5.42765555
Cu 5.42285426 0.00290015 5.45651459
Cu 5.41597131 1.79723640 3.63860643
Cu 3.60183071 0.02852447 7.22655202
Cu 3.61589781 1.81911230 9.05779457
Cu 5.43879476 10.84055064 9.03050074
Cu 5.42757360 1.80886845 7.21898621
Cu 3.62158839 3.63138008 0.00208204
Cu 3.64146226 5.42848091 1.80435707
Cu 5.42338140 3.60432074 1.78940770
Cu 5.42993991 5.40681770 10.83807928