108
Step=0 Lattice="10.56 0 0  0 10.56 0  0 0 10.56" Properties=species:S:1:pos:R:3
Ni 10.53770535 10.55129088 0.02746781
Ni 0.00429531 1.77865060 1.77153364
Ni 1.74537092 0.01089125 1.75260906
Ni 1.75150742 1.76084334 10.52664785
Ni 0.02468336 10.54536710 3.54009716
Ni 0.00201126 1.79090674 5.26436955
Ni 1.75242513 0.00591240 5.23314579
Ni 1.77791514 1.79130028 3.54253149
Ni 0.01553215 10.55507022 7.06705740
Ni 0.02160421 1.76692533 8.79991689
Ni 1.75236179 10.53258339 8.82625947
Ni 1.71302845 1.75050264 7.04277435
Ni 0.01690650 3.55590637 0.02108843
Ni 10.55229649 5.29391045 1.73277133
Ni 1.79039288 3.51610423 1.74477850
Ni 1.74620333 5.27750284 10.55098766
Ni 0.04759418 3.50384379 3.51901108
Ni 10.55947871 5.27975136 5.28085979
Ni 1.74926526 3.50632212 5.26199467
Ni 1.72762474 5.28357788 3.53982519
Ni 10.54779826 3.50693791 7.03297500
Ni 10.54844553 5.24776956 8.82877713
Ni 1.76840293 3.50373757 8.80561350
Ni 1.74972612 5.27387455 7.04702432
Ni 0.01919396 7.07162715 0.03534294
Ni 10.55388617 8.78843856 1.76127668
Ni 1.76240371 7.02253540 1.74644925
Ni 1.77703757 8.83379785 10.55502571
Ni 10.54561633 7.03258529 3.49848582
Ni 10.55423150 8.80684140 5.27855003
Ni 1.78575270 7.04233682 5.28998542
Ni 1.75613904 8.82561624 3.49263769
Ni 10.55230949 7.01322625 7.05701999
Ni 0.01700462 8.78730667 8.83518385
Ni 1.75254263 7.00861020 8.79386714
Ni 1.76710507 8.79382134 7.08757345
Ni 3.53783724 0.03475805 0.02802443
Ni 3.48288701 1.75121444 1.70212135
Ni 5.26532544 0.02214299 1.74219190
Ni 5.26623179 1.76649650 0.01479028
Ni 3.51199882 10.55349828 3.53551815
Ni 3.52414425 1.75296459 5.28667329
Ni 5.27998015 0.00300457 5.32211651
Ni 5.27113267 1.74738763 3.54888497
Ni 3.50321944 0.03521680 7.03617294
Ni 3.52136112 1.77437797 8.82498691
Ni 5.29979952 10.55462245 8.79115264
Ni 5.28587902 1.76182312 7.02702840
Ni 3.52823555 3.54062404 0.00222863
Ni 3.55286487 5.28737587 1.75620239
Ni 5.28079315 3.50683915 1.73786012
Ni 5.28899273 5.26070781 10.55113542
Ni 3.51793592 3.52688329 3.52842295
Ni 3.52041680 5.23750915 5.27598021
Ni 5.26260411 3.51648886 5.30103521
Ni 5.29647292 5.28223137 3.52943018
Ni 3.48707687 3.52235178 7.05308878
Ni 3.50459636 5.28780877 8.79116037
Ni 5.30036901 3.54133561 8.78817649
Ni 5.31067621 5.27492735 7.08332557
Ni 3.50944114 7.03922001 0.00362317
Ni 3.50360777 8.76188306 1.74229999
Ni 5.30236645 7.03217811 1.75196521
Ni 5.31159477 8.80949789 0.01451214
Ni 3.53704413 7.01857178 3.52179200
Ni 3.52226976 8.79531479 5.25654426
Ni 5.28911350 7.00324994 5.26057328
Ni 5.26219195 8.79049049 3.53702311
Ni 3.55567935 7.07493318 7.05631961
Ni 3.52981740 8.74935170 8.82443965
Ni 5.33553281 7.04815988 8.80459169
Ni 5.29386919 8.81437899 7.04195840
Ni 7.03133167 0.00660893 10.53071245
Ni 6.99841935 1.78738321 1.74909739
Ni 8.81422791 0.03203168 1.78511532
Ni 8.78796449 1.76561159 10.53516736
Ni 7.03666811 0.02005563 3.51984851
Ni 6.97921089 1.71139542 5.26159624
Ni 8.82817017 0.00321528 5.28178315
Ni 8.77102935 1.76217259 3.47177718
Ni 7.04764810 0.02409176 7.02222158
Ni 7.06205901 1.74326875 8.80217721
Ni 8.79693297 0.00085632 8.83115446
Ni 8.81829169 1.74369900 6.98008332
Ni 7.05864124 3.53494447 0.00283052
Ni 7.02771057 5.31279787 1.72119544
Ni 8.78265806 3.48828468 1.76705216
Ni 8.78931425 5.32454205 10.55939845
Ni 7.03358742 3.53132492 3.50396564
Ni 7.01643392 5.28928000 5.26964777
Ni 8.81912027 3.52544402 5.28067354
Ni 8.80061973 5.27648396 3.52754296
Ni 7.03143731 3.47590344 7.04023220
Ni 7.03065770 5.24903538 8.81613371
Ni 8.79146769 3.48091459 8.79768808
Ni 8.78427952 5.24160149 7.04616360
Ni 7.01736314 7.05476346 10.53966947
Ni 7.06045584 8.80879205 1.76212118
Ni 8.78230384 7.05834493 1.77004021
Ni 8.79083702 8.81084005 10.53750553
Ni 7.01238113 7.03730982 3.52073007
Ni 7.04839428 8.80058093 5.30553637
Ni 8.77185732 7.05047113 5.28424946
Ni 8.82777015 8.80171387 3.52641366
Ni 7.07657046 7.05503672 7.05202206
Ni 7.03121883 8.80264850 8.76369712
Ni 8.78154673 7.05223487 8.76194426
Ni 8.80226251 8.80027037 7.04794676
108
Step=1000 Lattice="10.56 0 0  0 10.56 0  0 0 10.56" Properties=species:S:1:pos:R:3
Ni 10.53312500 10.54982327 0.03314917
Ni 0.00557351 1.78246536 1.77369725
Ni 1.74234074 0.01333824 1.75118308
Ni 1.74936945 1.76101330 10.52004046
Ni 0.02944172 10.54305225 3.54370616
Ni 0.00231257 1.79667325 5.26079240
Ni 1.75088222 0.00705585 5.22445264
Ni 1.78193775 1.79722301 3.54647167
Ni 0.01863306 10.55377575 7.07252971
Ni 0.02548073 1.76819915 8.80016182
Ni 1.75127760 10.52731317 8.83174322
Ni 1.70387660 1.74848625 7.04322083
Ni 0.01983609 3.56267931 0.02548301
Ni 10.55042447 5.29648601 1.72763682
Ni 1.79664488 3.51573277 1.74171215
Ni 1.74382543 5.27708077 10.54923093
Ni 0.05661049 3.50097216 3.51823203
Ni 10.55918678 5.27992813 5.28119713
Ni 1.74731999 3.50374205 5.25905177
Ni 1.72136090 5.28443095 3.54343003
Ni 10.54547700 3.50449589 7.03178339
Ni 10.54569005 5.24131616 8.83450493
Ni 1.76992495 3.50069547 8.80668920
Ni 1.74757819 5.27250863 7.04829948
Ni 0.02279248 7.07806077 0.04205786
Ni 10.55264295 8.78639539 1.76147347
Ni 1.76306923 7.01886222 1.74400665
Ni 1.78058858 8.84044053 10.55434122
Ni 10.54288773 7.03112335 3.49444069
Ni 10.55353195 8.80768103 5.27874538
Ni 1.79089030 7.04299416 5.29212823
Ni 1.75543593 8.82999679 3.48694167
Ni 10.55058356 7.00776004 7.06034175
Ni 0.02015651 8.78457601 8.84229013
Ni 1.75084685 7.00218004 8.79291362
Ni 1.76858474 8.79261461 7.09685640
Ni 3.54143611 0.04102920 0.03297732
Ni 3.47539230 1.74983531 1.69129545
Ni 5.26239973 0.02630833 1.73917509
Ni 5.26383603 1.76821580 0.01695160
Ni 3.51063016 10.55237693 3.53800855
Ni 3.52469263 1.75176762 5.28828855
Ni 5.27945801 0.00293417 5.33037354
Ni 5.26856941 1.74500778 3.55417338
Ni 3.49942772 0.04203267 7.03586860
Ni 3.52189269 1.77719803 8.82974569
Ni 5.30328604 10.55371153 8.78923449
Ni 5.28659455 1.76231984 7.02518673
Ni 3.52991578 3.54503458 0.00228703
Ni 3.55942971 5.28880360 1.75556609
Ni 5.28062812 3.50435277 1.73380021
Ni 5.29052925 5.25707254 10.54907728
Ni 3.51783233 3.52820785 3.52964693
Ni 3.52047261 5.22920368 5.27569853
Ni 5.25916896 3.51587367 5.30540370
Ni 5.29968934 5.28205890 3.53085391
Ni 3.48041606 3.52251565 7.05582296
Ni 3.50180363 5.28957159 8.78941046
Ni 5.30419770 3.54491316 8.78599792
Ni 5.31678182 5.27411337 7.09176055
Ni 3.50770298 7.03861079 0.00416749
Ni 3.50060151 8.75441473 1.73885967
Ni 5.30673539 7.03091789 1.75019537
Ni 5.31774446 8.81153695 0.01744815
Ni 3.54020390 7.01398226 3.52201981
Ni 3.52259712 8.79440641 5.25222717
Ni 5.29080005 6.99602706 5.25743736
Ni 5.25883352 8.78892560 3.54019701
Ni 3.56322365 7.08150406 7.05935575
Ni 3.53232167 8.73966456 8.82971995
Ni 5.34647664 7.04963409 8.80556452
Ni 5.29643702 8.81725371 7.04215101
Ni 7.02965468 0.00800639 10.52531943
Ni 6.98993898 1.79252132 1.74668722
Ni 8.81685366 0.03838327 1.78987256
Ni 8.78588650 1.76673428 10.53071201
Ni 7.03579547 0.02345699 3.51967662
Ni 6.96773451 1.70229091 5.25765668
Ni 8.83390791 0.00393626 5.28177422
Ni 8.76524955 1.76279967 3.46286575
Ni 7.04971776 0.02889678 7.01891310
Ni 7.06615307 1.73997776 8.80238312
Ni 8.79666562 0.00107162 8.83680597
Ni 8.82195618 1.74025302 6.96818941
Ni 7.06244249 3.53780747 0.00333854
Ni 7.02548398 5.31919158 1.71358139
Ni 8.77933281 3.48254714 1.76824161
Ni 8.78720538 5.33371516 10.55910965
Ni 7.03201179 3.53371802 3.50095453
Ni 7.01200247 5.29064884 5.26800988
Ni 8.82236019 3.52632202 5.28017376
Ni 8.80067861 5.27562501 3.52875856
Ni 7.03008529 3.46672227 7.03983637
Ni 7.02953628 5.24285463 8.81932352
Ni 8.78995978 3.47298402 8.79714708
Ni 8.78085897 5.23366676 7.04745522
Ni 7.01326474 7.05802802 10.53541861
Ni 7.06461991 8.81105779 1.76278753
Ni 8.77843071 7.06212499 1.77197649
Ni 8.78865637 8.81281431 10.53313133
Ni 7.00720097 7.03712114 3.52078204
Ni 7.05001777 8.80095960 5.31036132
Ni 8.76643334 7.05231799 5.28507857
Ni 8.83297205 8.80224017 3.52782658
Ni 7.08353566 7.05758626 7.05412858
Ni 7.02970428 8.80371795 8.75639568
Ni 8.77811365 7.05444853 8.75480905
Ni 8.80327906 8.80094325 7.04963389
108
Step=2000 Lattice="10.56 0 0  0 10.56 0  0 0 10.56" Properties=species:S:1:pos:R:3
Ni 10.52869480 10.54857340 0.03866700
Ni 0.00702131 1.78615348 1.77567984
Ni 1.73939135 0.01581739 1.74985185
Ni 1.74708301 1.76116756 10.51378557
Ni 0.03385185 10.54118767 3.54690381
Ni 0.00255114 1.80193591 5.25711815
Ni 1.74941567 0.00813043 5.21654824
Ni 1.78602813 1.80266357 3.54990641
Ni 0.02157766 10.55234860 7.07779207
Ni 0.02891311 1.76934995 8.80054462
Ni 1.75048006 10.52242572 8.83708560
Ni 1.69528299 1.74650513 7.04357156
Ni 0.02237949 3.56888528 0.02977850
Ni 10.54845936 5.29885095 1.72292128
Ni 1.80269645 3.51560959 1.73877993
Ni 1.74177624 5.27672820 10.54758223
Ni 0.06492164 3.49844975 3.51715631
Ni 10.55880348 5.28021627 5.28161455
Ni 1.74558688 3.50139307 5.25663248
Ni 1.71550873 5.28532884 3.54668114
Ni 10.54332606 3.50226880 7.03076425
Ni 10.54282029 5.23515701 8.83992921
Ni 1.77128395 3.49792430 8.80769657
Ni 1.74546425 5.27112176 7.04943763
Ni 0.02610764 7.08424760 0.04827177
Ni 10.55144233 8.78460787 1.76165039
Ni 1.76380573 7.01525341 1.74183762
Ni 1.78405499 8.84670067 10.55388572
Ni 10.54035999 7.02974271 3.49071517
Ni 10.55311933 8.80818395 5.27919851
Ni 1.79579538 7.04371390 5.29426190
Ni 1.75481397 8.83376095 3.48138214
Ni 10.54883750 7.00247930 7.06346633
Ni 0.02303306 8.78185652 8.84910651
Ni 1.74910876 6.99597022 8.79214921
Ni 1.77003617 8.79145514 7.10561036
Ni 3.54486256 0.04659824 0.03730731
Ni 3.46819667 1.74875971 1.68138623
Ni 5.25962581 0.03014812 1.73661550
Ni 5.26174889 1.77008932 0.01856527
Ni 3.50945776 10.55140956 3.54005518
Ni 3.52506456 1.75074309 5.28998126
Ni 5.27864088 0.00247078 5.33815472
Ni 5.26568751 1.74281227 3.55893926
Ni 3.49556775 0.04842239 7.03582471
Ni 3.52254505 1.77985801 8.83415926
Ni 5.30635254 10.55293787 8.78732345
Ni 5.28701351 1.76286049 7.02384702
Ni 3.53152807 3.54939939 0.00212187
Ni 3.56569958 5.29014406 1.75502588
Ni 5.28028285 3.50208701 1.73012935
Ni 5.29185518 5.25373718 10.54695428
Ni 3.51790446 3.52944835 3.53056252
Ni 3.52049779 5.22139194 5.27570407
Ni 5.25592430 3.51532799 5.30965984
Ni 5.30270216 5.28155119 3.53194272
Ni 3.47402392 3.52249510 7.05848974
Ni 3.49930409 5.29135495 8.78775031
Ni 5.30769962 3.54791775 8.78403176
Ni 5.32259500 5.27345854 7.09966649
Ni 3.50624428 7.03776269 0.00459195
Ni 3.49789111 8.74737277 1.73564191
Ni 5.31082959 7.02989757 1.74842231
Ni 5.32351420 8.81357166 0.02027051
Ni 3.54308895 7.00943480 3.52216958
Ni 3.52282877 8.79355427 5.24831560
Ni 5.29230573 6.98921882 5.25486615
Ni 5.25574633 8.78760708 3.54309854
Ni 3.57064773 7.08754906 7.06212487
Ni 3.53500384 8.73065078 8.83497693
Ni 5.35680937 7.05095104 8.80649095
Ni 5.29877637 8.81999376 7.04222287
Ni 7.02808548 0.00938346 10.52043711
Ni 6.98177289 1.79722276 1.74427145
Ni 8.81924440 0.04439669 1.79425931
Ni 8.78408885 1.76780537 10.52676837
Ni 7.03484360 0.02635802 3.51941525
Ni 6.95717834 1.69396798 5.25377593
Ni 8.83943650 0.00464406 5.28154659
Ni 8.75973073 1.76351781 3.45479052
Ni 7.05199063 0.03346482 7.01589706
Ni 7.06986831 1.73687118 8.80243779
Ni 8.79661560 0.00129411 8.84186866
Ni 8.82544889 1.73688253 6.95689596
Ni 7.06611283 3.54046285 0.00379625
Ni 7.02348949 5.32519114 1.70640004
Ni 8.77623860 3.47741299 1.76923210
Ni 8.78520469 5.34263365 10.55874307
Ni 7.03034262 3.53606285 3.49818604
Ni 7.00794916 5.29167769 5.26669014
Ni 8.82514353 3.52706268 5.27934200
Ni 8.80069501 5.27473029 3.52976279
Ni 7.02899845 3.45776106 7.03921297
Ni 7.02890917 5.23698012 8.82234380
Ni 8.78863334 3.46536140 8.79656398
Ni 8.77743314 5.22595532 7.04872732
Ni 7.00962451 7.06131189 10.53128212
Ni 7.06862928 8.81350452 1.76356101
Ni 8.77456142 7.06579310 1.77378772
Ni 8.78637680 8.81457901 10.52903222
Ni 7.00245354 7.03713371 3.52077806
Ni 7.05153249 8.80147061 5.31481103
Ni 8.76137784 7.05394042 5.28584470
Ni 8.83774547 8.80284912 3.52924744
Ni 7.08996118 7.05975209 7.05594363
Ni 7.02841487 8.80505700 8.74942013
Ni 8.77499247 7.05642400 8.74828613
Ni 8.80457635 8.80193121 7.05128671
108
Step=3000 Lattice="10.56 0 0  0 10.56 0  0 0 10.56" Properties=species:S:1:pos:R:3
Ni 10.52444308 10.54756805 0.04398831
Ni 0.00865653 1.78969486 1.77745556
Ni 1.73653788 0.01832678 1.74862752
Ni 1.74463685 1.76130040 10.50794720
Ni 0.03784724 10.53983245 3.54962068
Ni 0.00272474 1.80662057 5.25333376
Ni 1.74804943 0.00912879 5.20955153
Ni 1.79019437 1.80754193 3.55276064
Ni 0.02433714 10.55076402 7.08281553
Ni 0.03182946 1.77035792 8.80108099
Ni 1.75000108 10.51799039 8.84225013
Ni 1.68733320 1.74457184 7.04380724
Ni 0.02448366 3.57442698 0.03395974
Ni 10.54639260 5.30098927 1.71868934
Ni 1.80850761 3.51577173 1.73600433
Ni 1.74010257 5.27645791 10.54605870
Ni 0.07242065 3.49633347 3.51574383
Ni 10.55831555 5.28062534 5.28212293
Ni 1.74410017 3.49932058 5.25481647
Ni 1.71013310 5.28627921 3.54953625
Ni 10.54136719 3.50029118 7.02993929
Ni 10.53982731 5.22933918 8.84499053
Ni 1.77245271 3.49547042 8.80862828
Ni 1.74338612 5.26971014 7.05041888
Ni 0.02910410 7.09013938 0.05391472
Ni 10.55028923 8.78311905 1.76181531
Ni 1.76462135 7.01171807 1.73998475
Ni 1.78742013 8.85251036 10.55370516
Ni 10.53805752 7.02845585 3.48735037
Ni 10.55303225 8.80830655 5.27993873
Ni 1.80043658 7.04449500 5.29638757
Ni 1.75429188 8.83682555 3.47598414
Ni 10.54707156 6.99741210 7.06636646
Ni 0.02559824 8.77915016 8.85558543
Ni 1.74732132 6.99002360 8.79159539
Ni 1.77145917 8.79033810 7.11377053
Ni 3.54807920 0.05134901 0.04090995
Ni 3.46134876 1.74804497 1.67252518
Ni 5.25703196 0.03362276 1.73457767
Ni 5.26000991 1.77213224 0.01955670
Ni 3.50850807 10.55061655 3.54160321
Ni 3.52523814 1.74991489 5.29175646
Ni 5.27747506 0.00155773 5.34538696
Ni 5.26244891 1.74082617 3.56310483
Ni 3.49163447 0.05432849 7.03607344
Ni 3.52333229 1.78233422 8.83818080
Ni 5.30894285 10.55232234 8.78542218
Ni 5.28709326 1.76344232 7.02307553
Ni 3.53305790 3.55370423 0.00170145
Ni 3.57163408 5.29138518 1.75459133
Ni 5.27972848 3.50008763 1.72689893
Ni 5.29294673 5.25074886 10.54475913
Ni 3.51817368 3.53059685 3.53113298
Ni 3.52048151 5.21415190 5.27602590
Ni 5.25290213 3.51485676 5.31378387
Ni 5.30547537 5.28066809 3.53264787
Ni 3.46794685 3.52226413 7.06107551
Ni 3.49713990 5.29315263 8.78618960
Ni 5.31082190 3.55026037 8.78231105
Ni 5.32807369 5.27298702 7.10695763
Ni 3.50509930 7.03663638 0.00488535
Ni 3.49552257 8.74082012 1.73268389
Ni 5.31460117 7.02915749 1.74664938
Ni 5.32884664 8.81560373 0.02296138
Ni 3.54566654 7.00494077 3.52223534
Ni 3.52294872 8.79276538 5.24486481
Ni 5.29359253 6.98289509 5.25293278
Ni 5.25296974 8.78655947 3.54569006
Ni 3.57792424 7.09299570 7.06459059
Ni 3.53788016 8.72240112 8.84020026
Ni 5.36642678 7.05208861 8.80734387
Ni 5.30085657 8.82257663 7.04216353
Ni 7.02663684 0.01073713 10.51613910
Ni 6.97398404 1.80141892 1.74186104
Ni 8.82137068 0.05000961 1.79821901
Ni 8.78260969 1.76881313 10.52341945
Ni 7.03379919 0.02868896 3.51904365
Ni 6.94768201 1.68654985 5.24998013
Ni 8.84472103 0.00532213 5.28106322
Ni 8.75450642 1.76434558 3.44768087
Ni 7.05448679 0.03775631 7.01321766
Ni 7.07314532 1.73397611 8.80231629
Ni 8.79681678 0.00152311 8.84625819
Ni 8.82874242 1.73361434 6.94630025
Ni 7.06963182 3.54287835 0.00420088
Ni 7.02176083 5.33073325 1.69971680
Ni 8.77340746 3.47296827 1.76998739
Ni 8.78333038 5.35126247 10.55829064
Ni 7.02856925 3.53834471 3.49569005
Ni 7.00433813 5.29231719 5.26573249
Ni 8.82741813 3.52765718 5.27813572
Ni 8.80066091 5.27380222 3.53053018
Ni 7.02821506 3.44906070 7.03833516
Ni 7.02885539 5.23146644 8.82516789
Ni 8.78751478 3.45810010 8.79592172
Ni 8.77400439 5.21850623 7.04997846
Ni 7.00652389 7.06461153 10.52729640
Ni 7.07245629 8.81615400 1.76445192
Ni 8.77070803 7.06932930 1.77545727
Ni 8.78398421 8.81609931 10.52525097
Ni 6.99820156 7.03737150 3.52071208
Ni 7.05292223 8.80213218 5.31883463
Ni 8.75674764 7.05530703 5.28653237
Ni 8.84203415 8.80355294 3.53067598
Ni 7.09575537 7.06147940 7.05741265
Ni 7.02739111 8.80670777 8.74282799
Ni 8.77223373 7.05812702 8.74247430
Ni 8.80619039 8.80327276 7.05289162
108
Step=4000 Lattice="10.56 0 0  0 10.56 0  0 0 10.56" Properties=species:S:1:pos:R:3
Ni 10.52039720 10.54682858 0.04907945
Ni 0.01049149 1.79307084 1.77900224
Ni 1.73379628 0.02086202 1.74752023
Ni 1.74202734 1.76140636 10.50258752
Ni 0.04136605 10.53903469 3.55179300
Ni 0.00283432 1.81066308 5.24942871
Ni 1.74680843 0.01004376 5.20356786
Ni 1.79444101 1.81178656 3.55496905
Ni 0.02688511 10.54900004 7.08757431
Ni 0.03416444 1.77120454 8.80178184
Ni 1.74986516 10.51407260 8.84719863
Ni 1.68010402 1.74270032 7.04391055
Ni 0.02610297 3.57921477 0.03801209
Ni 10.54421818 5.30289138 1.71499867
Ni 1.81403821 3.51625360 1.73340586
Ni 1.73884326 5.27628094 10.54467640
Ni 0.07901322 3.49467476 3.51395842
Ni 10.55771093 5.28116120 5.28273062
Ni 1.74288905 3.49756646 5.25367102
Ni 1.70529379 5.28728796 3.55196108
Ni 10.53961801 3.49858864 7.02932530
Ni 10.53670603 5.22390625 8.84963224
Ni 1.77340512 3.49337662 8.80947853
Ni 1.74134539 5.26827105 7.05122672
Ni 0.03175119 7.09568760 0.05892602
Ni 10.54918727 8.78196852 1.76197806
Ni 1.76552211 7.00826453 1.73848523
Ni 1.79066681 8.85780374 10.55384398
Ni 10.53600024 7.02727443 3.48438174
Ni 10.55330399 8.80801317 5.28098775
Ni 1.80478564 7.04533300 5.29850658
Ni 1.75388789 8.83912077 3.47077326
Ni 10.54528653 6.99258435 7.06901852
Ni 0.02782157 8.77646557 8.86168224
Ni 1.74547473 6.98438273 8.79126896
Ni 1.77285487 8.78925614 7.12128235
Ni 3.55105147 0.05517824 0.04369165
Ni 3.45489695 1.74774274 1.66482520
Ni 5.25464343 0.03669972 1.73311592
Ni 5.25865047 1.77435712 0.01986370
Ni 3.50780162 10.55001385 3.54260728
Ni 3.52519506 1.74930346 5.29361665
Ni 5.27591338 0.00015158 5.35200433
Ni 5.25882362 1.73907144 3.56660142
Ni 3.48762551 0.05969935 7.03664269
Ni 3.52426375 1.78460530 8.84176979
Ni 5.31100882 10.55188328 8.78353381
Ni 5.28679743 1.76405787 7.02292875
Ni 3.53449094 3.55793254 0.00099845
Ni 3.57719674 5.29251599 1.75426880
Ni 5.27893899 3.49839862 1.72415177
Ni 5.29378680 5.24815051 10.54248418
Ni 3.51865681 3.53164817 3.53132973
Ni 3.52041299 5.20755557 5.27668635
Ni 5.25013184 3.51446237 5.31775692
Ni 5.30797619 5.27937986 3.53292902
Ni 3.46222944 3.52180075 7.06356762
Ni 3.49534896 5.29495598 8.78473441
Ni 5.31351846 3.55186369 8.78086400
Ni 5.33318061 5.27271793 7.11355621
Ni 3.50429824 7.03519639 0.00504038
Ni 3.49353818 8.73481364 1.73002008
Ni 5.31800652 7.02873466 1.74488056
Ni 5.33369059 8.81763445 0.02550394
Ni 3.54791057 7.00051303 3.52221445
Ni 3.52294173 8.79204586 5.24192187
Ni 5.29462536 6.97712017 5.25169628
Ni 5.25053784 8.78580036 3.54793888
Ni 3.58502355 7.09778004 7.06672246
Ni 3.54096139 8.71499548 8.84537649
Ni 5.37523148 7.05302470 8.80809305
Ni 5.30265141 8.82498065 7.04196714
Ni 7.02531958 0.01206521 10.51248956
Ni 6.96663553 1.80504802 1.73946834
Ni 8.82320702 0.05516315 1.80170096
Ni 8.78148090 1.76974486 10.52074030
Ni 7.03264968 0.03039071 3.51854287
Ni 6.93936772 1.68014618 5.24629761
Ni 8.84972900 0.00595087 5.28028978
Ni 8.74960539 1.76530080 3.44165244
Ni 7.05721913 0.04173537 7.01091201
Ni 7.07593173 1.73131608 8.80199778
Ni 8.79729877 0.00175911 8.84990191
Ni 8.83181338 1.73047781 6.93649324
Ni 7.07297984 3.54502486 0.00455137
Ni 7.02032739 5.33575968 1.69359053
Ni 8.77086682 3.46928837 1.77047213
Ni 8.78160011 5.35956860 10.55775073
Ni 7.02668392 3.54054701 3.49349065
Ni 7.00122801 5.29252417 5.26517569
Ni 8.82914210 3.52809941 5.27651629
Ni 8.80056837 5.27284540 3.53103915
Ni 7.02776843 3.44066175 7.03718194
Ni 7.02944491 5.22636411 8.82777071
Ni 8.78662725 3.45125023 8.79520677
Ni 8.77057676 5.21135704 7.05120960
Ni 7.00403868 7.06792182 10.52350096
Ni 7.07607369 8.81902367 1.76546733
Ni 8.76688587 7.07271461 1.77697086
Ni 8.78146654 8.81734449 10.52182641
Ni 6.99449908 7.03785287 3.52058107
Ni 7.05417350 8.80295959 5.32238839
Ni 8.75259437 7.05639079 5.28712656
Ni 8.84579057 8.80436195 3.53211183
Ni 7.10083476 7.06272290 7.05848555
Ni 7.02667336 8.80870613 8.73667275
Ni 8.76988339 7.05952886 8.73746277
Ni 8.80814951 8.80499657 7.05443394
108
Step=5000 Lattice="10.56 0 0  0 10.56 0  0 0 10.56" Properties=species:S:1:pos:R:3
Ni 10.51658334 10.54637052 0.05390612
Ni 0.01253228 1.79626421 1.78030190
Ni 1.73118366 0.02341607 1.74653814
Ni 1.73925854 1.76148063 10.49776585
Ni 0.04435398 10.53883015 3.55336497
Ni 0.00288402 1.81401112 5.24539550
Ni 1.74571730 0.01086767 5.19868602
Ni 1.79876773 1.81533720 3.55647825
Ni 0.02919865 10.54703868 7.09204563
Ni 0.03586095 1.77187278 8.80265255
Ni 1.75008897 10.51073182 8.85189214
Ni 1.67366156 1.74090545 7.04386725
Ni 0.02720008 3.58316943 0.04192093
Ni 10.54193292 5.30455354 1.71189873
Ni 1.81924828 3.51708682 1.73100282
Ni 1.73802764 5.27620573 10.54345025
Ni 0.08462034 3.49351812 3.51177525
Ni 10.55697900 5.28182588 5.28344284
Ni 1.74197586 3.49616709 5.25324755
Ni 1.70104452 5.28835855 3.55392977
Ni 10.53809175 3.49718081 7.02893334
Ni 10.53345552 5.21889774 8.85380218
Ni 1.77411644 3.49168089 8.81024315
Ni 1.73934392 5.26680337 7.05184850
Ni 0.03402317 7.10084394 0.06325561
Ni 10.54813867 8.78119120 1.76214981
Ni 1.76651157 7.00490066 1.73736978
Ni 1.79377716 8.86251803 10.55434345
Ni 10.53420337 7.02620955 3.48183899
Ni 10.55396211 8.80727327 5.28235891
Ni 1.80881725 7.04622026 5.30062016
Ni 1.75361475 8.84059184 3.46577603
Ni 10.54348372 6.98801983 7.07140272
Ni 0.02967885 8.77381483 8.86735556
Ni 1.74356615 6.97908938 8.79118183
Ni 1.77422568 8.78819988 7.12810167
Ni 3.55374940 0.05800049 0.04557445
Ni 3.44888989 1.74789514 1.65837645
Ni 5.25248103 0.03935385 1.73227240
Ni 5.25769282 1.77676933 0.01943850
Ni 3.50735196 10.54961218 3.54303236
Ni 3.52492099 1.74892529 5.29556187
Ni 5.27391867 10.55822599 5.35794895
Ni 5.25479140 1.73756675 3.56937153
Ni 3.48354165 0.06448913 7.03755565
Ni 3.52534292 1.78665247 8.84489252
Ni 5.31251102 10.55163597 8.78166220
Ni 5.28609713 1.76469487 7.02344435
Ni 3.53581319 3.56206525 10.55999057
Ni 3.58235481 5.29352673 1.75406142
Ni 5.27789241 3.49706032 1.72192122
Ni 5.29436586 5.24598024 10.54012803
Ni 3.51936553 3.53259999 3.53113317
Ni 3.52028217 5.20166796 5.27770095
Ni 5.24763965 3.51414464 5.32156107
Ni 5.31017628 5.27766904 3.53275619
Ni 3.45691412 3.52108747 7.06595473
Ni 3.49396433 5.29675427 8.78338685
Ni 5.31575206 3.55266537 8.77971275
Ni 5.33788371 5.27266383 7.11939457
Ni 3.50386220 7.03341258 0.00505364
Ni 3.49197600 8.72940348 1.72768153
Ni 5.32100773 7.02866158 1.74312044
Ni 5.33800193 8.81966432 0.02788252
Ni 3.54980187 6.99616623 3.52210796
Ni 3.52279365 8.79140112 5.23952491
Ni 5.29537401 6.97195082 5.25119973
Ni 5.24847878 8.78534036 3.54981782
Ni 3.59191345 7.10184738 7.06849692
Ni 3.54425237 8.70850219 8.85048857
Ni 5.38313553 7.05374166 8.80870700
Ni 5.30413968 8.82718510 7.04163286
Ni 7.02414349 0.01336662 10.50954186
Ni 6.95978959 1.80805669 1.73711377
Ni 8.82473165 0.05980423 1.80466181
Ni 8.78072719 1.77058717 10.51879580
Ni 7.03138750 0.03141664 3.51789733
Ni 6.93233568 1.67484895 5.24275721
Ni 8.85443065 0.00650853 5.27919565
Ni 8.74505170 1.76639965 3.43680370
Ni 7.06019241 0.04537064 7.00900847
Ni 7.07818382 1.72891070 8.80146690
Ni 8.79808585 0.00200413 8.85274074
Ni 8.83464324 1.72750403 6.92755817
Ni 7.07613800 3.54687691 0.00484799
Ni 7.01921326 5.34021838 1.68807282
Ni 8.76863900 3.46643643 1.77065648
Ni 8.78003113 5.36752041 10.55712318
Ni 7.02468219 3.54265110 3.49160580
Ni 6.99866995 5.29226303 5.26504564
Ni 8.83028420 3.52838872 5.27445542
Ni 8.80040968 5.27186658 3.53127195
Ni 7.02768585 3.43260429 7.03573851
Ni 7.03073025 5.22171795 8.83012866
Ni 8.78598994 3.44485752 8.79440470
Ni 8.76715633 5.20454346 7.05242081
Ni 7.00223643 7.07123632 10.51993717
Ni 7.07945460 8.82212622 1.76661082
Ni 8.76311356 7.07593155 1.77831681
Ni 8.77881938 8.81828932 10.51879284
Ni 6.99138996 7.03858990 3.52038571
Ni 7.05527589 8.80396462 5.32543619
Ni 8.74896365 7.05716955 5.28761335
Ni 8.84897652 8.80528415 3.53355462
Ni 7.10512708 7.06344864 7.05911921
Ni 7.02629619 8.81107963 8.73100251
Ni 8.76798113 7.06060727 8.73332807
Ni 8.81047313 8.80711975 7.05589849
108
Step=6000 Lattice="10.56 0 0  0 10.56 0  0 0 10.56" Properties=species:S:1:pos:R:3
Ni 10.51302618 10.54620325 0.05843349
Ni 0.01477817 1.79925932 1.78134117
Ni 1.72871862 0.02597915 1.74568758
Ni 1.73634264 1.76151963 10.49353754
Ni 0.04676712 10.53924129 3.55429088
Ni 0.00288105 1.81662568 5.24122997
Ni 1.74479884 0.01159184 5.19497557
Ni 1.80316803 1.81814760 3.55724882
Ni 0.03125942 10.54486593 7.09620953
Ni 0.03686978 1.77234735 8.80369244
Ni 1.75068110 10.50801938 8.85629223
Ni 1.66805960 1.73920270 7.04366725
Ni 0.02774671 3.58622470 0.04567117
Ni 10.53953677 5.30597716 1.70942950
Ni 1.82409838 3.51829990 1.72881092
Ni 1.73767407 5.27623731 10.54239391
Ni 0.08918063 3.49289975 3.50918232
Ni 10.55611097 5.28261755 5.28426118
Ni 1.74137464 3.49515135 5.25357867
Ni 1.69743222 5.28949140 3.55542518
Ni 10.53679706 3.49608086 7.02876824
Ni 10.53007939 5.21434843 8.85745438
Ni 1.77456362 3.49041522 8.81091995
Ni 1.73738427 5.26530925 7.05227589
Ni 0.03589954 7.10556096 0.06686533
Ni 10.54714419 8.78081602 1.76234223
Ni 1.76759048 7.00163429 1.73666161
Ni 1.79673239 8.86659508 10.55523972
Ni 10.53267742 7.02527187 3.47974603
Ni 10.55503130 8.80606678 5.28405660
Ni 1.81250891 7.04714614 5.30272912
Ni 1.75348251 8.84120041 3.46102015
Ni 10.54166497 6.98374027 7.07350317
Ni 0.03115269 8.77121379 8.87256772
Ni 1.74159805 6.97418381 8.79134087
Ni 1.77557518 8.78715842 7.13419471
Ni 3.55614927 0.05975283 0.04650053
Ni 3.44337688 1.74853102 1.65324263
Ni 5.25055986 0.04156757 1.73207542
Ni 5.25714942 1.77936426 0.01824958
Ni 3.50716470 10.54941643 3.54285443
Ni 3.52440579 1.74879248 5.29758993
Ni 5.27146376 10.55577505 5.36317167
Ni 5.25034345 1.73632724 3.57137076
Ni 3.47938719 0.06865766 7.03883044
Ni 3.52656646 1.78845961 8.84752248
Ni 5.31341937 10.55159211 8.77981229
Ni 5.28497203 1.76533623 7.02464353
Ni 3.53701117 3.56608079 10.55866109
Ni 3.58707911 5.29440904 1.75396904
Ni 5.27657207 3.49610746 1.72023036
Ni 5.29468268 5.24427075 10.53769166
Ni 3.52030587 3.53345292 3.53053317
Ni 3.52008047 5.19654605 5.27907856
Ni 5.24544800 3.51390101 5.32517944
Ni 5.31205287 5.27553186 3.53211139
Ni 3.45204080 3.52011183 7.06822710
Ni 3.49301373 5.29853505 8.78214492
Ni 5.31749830 3.55262107 8.77887216
Ni 5.34215667 5.27282928 7.12441718
Ni 3.50380675 7.03126160 0.00492555
Ni 3.49086932 8.72463252 1.72569527
Ni 5.32357405 7.02896499 1.74137429
Ni 5.34174457 8.82169261 0.03008262
Ni 3.55132840 6.99191700 3.52192066
Ni 3.52249188 8.79083593 5.23770236
Ni 5.29581510 6.96743443 5.25146860
Ni 5.24681411 8.78518312 3.55130566
Ni 3.59855895 7.10515277 7.06989803
Ni 3.54775178 8.70297733 8.85551544
Ni 5.39006315 7.05422917 8.80915513
Ni 5.30530564 8.82917031 7.04116509
Ni 7.02311758 0.01464158 10.50733729
Ni 6.95350615 1.81040136 1.73482141
Ni 8.82592629 0.06388779 1.80706711
Ni 8.78036529 1.77132640 10.51763867
Ni 7.03000670 0.03173431 3.51709654
Ni 6.92666002 1.67072855 5.23938651
Ni 8.85879928 0.00697231 5.27775503
Ni 8.74086481 1.76765574 3.43321259
Ni 7.06340240 0.04863599 7.00752533
Ni 7.07986802 1.72677533 8.80071497
Ni 8.79919608 0.00226216 8.85473087
Ni 8.83721917 1.72472480 6.91956907
Ni 7.07908800 3.54841299 0.00509186
Ni 7.01843627 5.34406449 1.68320729
Ni 8.76674089 3.46446196 1.77052104
Ni 8.77864030 5.37508690 10.55640956
Ni 7.02256316 3.54463508 3.49004724
Ni 6.99670569 5.29150687 5.26535831
Ni 8.83082400 3.52852386 5.27193609
Ni 8.80017734 5.27087451 3.53121467
Ni 7.02798764 3.42492754 7.03399658
Ni 7.03274731 5.21756560 8.83221954
Ni 8.78561749 3.43896220 8.79350162
Ni 8.76375152 5.19809917 7.05360744
Ni 7.00117365 7.07454756 10.51664665
Ni 7.08257252 8.82547015 1.76788241
Ni 8.75941286 7.07896457 1.77948627
Ni 8.77604301 8.81891539 10.51617949
Ni 6.98890664 7.03958782 3.52013081
Ni 7.05622244 8.80515511 5.32794984
Ni 8.74589451 7.05762646 5.28798056
Ni 8.85156349 8.80632478 3.53500402
Ni 7.10857421 7.06363535 7.05927990
Ni 7.02628537 8.81384578 8.72585878
Ni 8.76655860 7.06134735 8.73013089
Ni 8.81317081 8.80964693 7.05727026
108
Step=7000 Lattice="10.56 0 0  0 10.56 0  0 0 10.56" Properties=species:S:1:pos:R:3
Ni 10.50974872 10.54632988 0.06262637
Ni 0.01722125 1.80204213 1.78211168
Ni 1.72642143 0.02854177 1.74497302
Ni 1.73329997 1.76152142 10.48995280
Ni 0.04857447 10.54027667 3.55453707
Ni 0.00283547 1.81848228 5.23693171
Ni 1.74407248 0.01220614 5.19248449
Ni 1.80762830 1.82018754 3.55725677
Ni 0.03305462 10.54247066 7.10004858
Ni 0.03715147 1.77261492 8.80489449
Ni 1.75164189 10.50597652 8.86036232
Ni 1.66333810 1.73760764 7.04330547
Ni 0.02772413 3.58832606 0.04924677
Ni 10.53703295 5.30716491 1.70762046
Ni 1.82855006 3.51991798 1.72684315
Ni 1.73778888 5.27637665 10.54151969
Ni 0.09265203 3.49284641 3.50617967
Ni 10.55510008 5.28353052 5.28518310
Ni 1.74109040 3.49453902 5.25467588
Ni 1.69449619 5.29068346 3.55643905
Ni 10.53573806 3.49529516 7.02882822
Ni 10.52658598 5.21028783 8.86055057
Ni 1.77472555 3.48960532 8.81151268
Ni 1.73547011 5.26379661 7.05250522
Ni 0.03736519 7.10979287 0.06972997
Ni 10.54620312 8.78086480 1.76256669
Ni 1.76875654 6.99847356 1.73637566
Ni 1.79951272 8.86998640 10.55656201
Ni 10.53142817 7.02447180 3.47812111
Ni 10.55652973 8.80438569 5.28607594
Ni 1.81584082 7.04809732 5.30483361
Ni 1.75349794 8.84092538 3.45653466
Ni 10.53983263 6.97976542 7.07530806
Ni 0.03223285 8.76868134 8.87728508
Ni 1.73957581 6.96970414 8.79174786
Ni 1.77690796 8.78611990 7.13953795
Ni 3.55823481 0.06039863 0.04643604
Ni 3.43840795 1.74966309 1.64945804
Ni 5.24888831 0.04333081 1.73253809
Ni 5.25702283 1.78212986 0.01628084
Ni 3.50723687 10.54942519 3.54206091
Ni 3.52364370 1.74891246 5.29969863
Ni 5.26853714 10.55281504 5.36763234
Ni 5.24548380 1.73536447 3.57256943
Ni 3.47517028 0.07217040 7.04047966
Ni 3.52792335 1.79001340 8.84964071
Ni 5.31371361 10.55175940 8.77799030
Ni 5.28341104 1.76596053 7.02653032
Ni 3.53807201 3.56995515 10.55699544
Ni 3.59134386 5.29515610 1.75398820
Ni 5.27496793 3.49556728 1.71909138
Ni 5.29474474 5.24304878 10.53517812