108
Step=0 Lattice="10.845 0 0  0 10.845 0  0 0 10.845" Properties=species:S:1:pos:R:3
Cu 0.00000000 0.00000000 0.00000000
Cu 0.00000000 1.80750000 1.80750000
Cu 1.80750000 0.00000000 1.80750000
Cu 1.80750000 1.80750000 0.00000000
Cu 0.00000000 0.00000000 3.61500000
Cu 0.00000000 1.80750000 5.42250000
Cu 1.80750000 0.00000000 5.42250000
Cu 1.80750000 1.80750000 3.61500000
Cu 0.00000000 0.00000000 7.23000000
Cu 0.00000000 1.80750000 9.03750000
Cu 1.80750000 0.00000000 9.03750000
Cu 1.80750000 1.80750000 7.23000000
Cu 0.00000000 3.61500000 0.00000000
Cu 0.00000000 5.42250000 1.80750000
Cu 1.80750000 3.61500000 1.80750000
Cu 1.80750000 5.42250000 0.00000000
Cu 0.00000000 3.61500000 3.61500000
Cu 0.00000000 5.42250000 5.42250000
Cu 1.80750000 3.61500000 5.42250000
Cu 1.80750000 5.42250000 3.61500000
Cu 0.00000000 3.61500000 7.23000000
Cu 0.00000000 5.42250000 9.03750000
Cu 1.80750000 3.61500000 9.03750000
Cu 1.80750000 5.42250000 7.23000000
Cu 0.00000000 7.23000000 0.00000000
Cu 0.00000000 9.03750000 1.80750000
Cu 1.80750000 7.23000000 1.80750000
Cu 1.80750000 9.03750000 0.00000000
Cu 0.00000000 7.23000000 3.61500000
Cu 0.00000000 9.03750000 5.42250000
Cu 1.80750000 7.23000000 5.42250000
Cu 1.80750000 9.03750000 3.61500000
Cu 0.00000000 7.23000000 7.23000000
Cu 0.00000000 9.03750000 9.03750000
Cu 1.80750000 7.23000000 9.03750000
Cu 1.80750000 9.03750000 7.23000000
Cu 3.61500000 0.00000000 0.00000000
Cu 3.61500000 1.80750000 1.80750000
Cu 5.42250000 0.00000000 1.80750000
Cu 5.42250000 1.80750000 0.00000000
Cu 3.61500000 0.00000000 3.61500000
Cu 3.61500000 1.80750000 5.42250000
Cu 5.42250000 0.00000000 5.42250000
Cu 5.42250000 1.80750000 3.61500000
Cu 3.61500000 0.00000000 7.23000000
Cu 3.61500000 1.80750000 9.03750000
Cu 5.42250000 0.00000000 9.03750000
Cu 5.42250000 1.80750000 7.23000000
Cu 3.61500000 3.61500000 0.00000000
Cu 3.61500000 5.42250000 1.80750000
Cu 5.42250000 3.61500000 1.80750000
Cu 5.42250000 5.42250000 0.00000000
Cu 3.61500000 3.61500000 3.61500000
Cu 3.61500000 5.42250000 5.42250000
Cu 5.42250000 3.61500000 5.42250000
Cu 5.42250000 5.42250000 3.61500000
Cu 3.61500000 3.61500000 7.23000000
Cu 3.61500000 5.42250000 9.03750000
Cu 5.42250000 3.61500000 9.03750000
Cu 5.42250000 5.42250000 7.23000000
Cu 3.61500000 7.23000000 0.00000000
Cu 3.61500000 9.03750000 1.80750000
Cu 5.42250000 7.23000000 1.80750000
Cu 5.42250000 9.03750000 0.00000000
Cu 3.61500000 7.23000000 3.61500000
Cu 3.61500000 9.03750000 5.42250000
Cu 5.42250000 7.23000000 5.42250000
Cu 5.42250000 9.03750000 3.61500000
Cu 3.61500000 7.23000000 7.23000000
Cu 3.61500000 9.03750000 9.03750000
Cu 5.42250000 7.23000000 9.03750000
Cu 5.42250000 9.03750000 7.23000000
Cu 7.23000000 0.00000000 0.00000000
Cu 7.23000000 1.80750000 1.80750000
Cu 9.03750000 0.00000000 1.80750000
Cu 9.03750000 1.80750000 0.00000000
Cu 7.23000000 0.00000000 3.61500000
Cu 7.23000000 1.80750000 5.42250000
Cu 9.03750000 0.00000000 5.42250000
Cu 9.03750000 1.80750000 3.61500000
Cu 7.23000000 0.00000000 7.23000000
Cu 7.23000000 1.80750000 9.03750000
Cu 9.03750000 0.00000000 9.03750000
Cu 9.03750000 1.80750000 7.23000000
Cu 7.23000000 3.61500000 0.00000000
Cu 7.23000000 5.42250000 1.80750000
Cu 9.03750000 3.61500000 1.80750000
Cu 9.03750000 5.42250000 0.00000000
Cu 7.23000000 3.61500000 3.61500000
Cu 7.23000000 5.42250000 5.42250000
Cu 9.03750000 3.61500000 5.42250000
Cu 9.03750000 5.42250000 3.61500000
Cu 7.23000000 3.61500000 7.23000000
Cu 7.23000000 5.42250000 9.03750000
Cu 9.03750000 3.61500000 9.03750000
Cu 9.03750000 5.42250000 7.23000000
Cu 7.23000000 7.23000000 0.00000000
Cu 7.23000000 9.03750000 1.80750000
Cu 9.03750000 7.23000000 1.80750000
Cu 9.03750000 9.03750000 0.00000000
Cu 7.23000000 7.23000000 3.61500000
Cu 7.23000000 9.03750000 5.42250000
Cu 9.03750000 7.23000000 5.42250000
Cu 9.03750000 9.03750000 3.61500000
Cu 7.23000000 7.23000000 7.23000000
Cu 7.23000000 9.03750000 9.03750000
Cu 9.03750000 7.23000000 9.03750000
Cu 9.03750000 9.03750000 7.23000000
108
Step=10 Lattice="10.845 0 0  0 10.845 0  0 0 10.845" Properties=species:S:1:pos:R:3
Cu 10.84497969 10.84499150 0.00002498
Cu 0.00000317 1.80751706 1.80751087
Cu 1.80748669 0.00000955 1.80749314
Cu 1.80749292 1.80750072 10.84496914
Cu 0.00002298 10.84498548 3.61501927
Cu 0.00000203 1.80752920 5.42248632
Cu 1.80749313 0.00000550 5.42245562
Cu 1.80751575 1.80752939 3.61502178
Cu 0.00001430 10.84499590 7.23002486
Cu 0.00002063 1.80750659 9.03749952
Cu 1.80749214 10.84497438 9.03752375
Cu 1.80745622 1.80749145 7.23000268
Cu 0.00001638 3.61503375 0.00001913
Cu 10.84499354 5.42251324 1.80747438
Cu 1.80752769 3.61499569 1.80748605
Cu 1.80748664 5.42249758 10.84499162
Cu 0.00004476 3.61498455 3.61500007
Cu 10.84499988 5.42249936 5.42250052
Cu 1.80748976 3.61498722 5.42248231
Cu 1.80746979 5.42250309 3.61501895
Cu 10.84498854 3.61498771 7.22999314
Cu 10.84499018 5.42247030 9.03752651
Cu 1.80750803 3.61498467 9.03750532
Cu 1.80749062 5.42249460 7.23000664
Cu 0.00001823 7.23002895 0.00003323
Cu 10.84499438 9.03748888 1.80750139
Cu 1.80750187 7.22998423 1.80748711
Cu 1.80751546 9.03753138 10.84499492
Cu 10.84498646 7.22999317 3.61497967
Cu 10.84499391 9.03750718 5.42249780
Cu 1.80752382 7.23000179 5.42250897
Cu 1.80749637 9.03752490 3.61497516
Cu 10.84499330 7.22997551 7.23001581
Cu 0.00001619 9.03748856 9.03753232
Cu 1.80749342 7.22997135 9.03749384
Cu 1.80750646 9.03749415 7.23004437
Cu 3.61501629 0.00003315 0.00002692
Cu 3.61496587 1.80749130 1.80744528
Cu 5.42248649 0.00002092 1.80748269
Cu 5.42248669 1.80750527 0.00001504
Cu 3.61499225 10.84499372 3.61501547
Cu 3.61500436 1.80749314 5.42250566
Cu 5.42250083 0.00000385 5.42253913
Cu 5.42249326 1.80748809 3.61502747
Cu 3.61498532 0.00003292 7.22999557
Cu 3.61500079 1.80751335 9.03752349
Cu 5.42251910 10.84499476 9.03749215
Cu 5.42250622 1.80750147 7.22998667
Cu 3.61500747 3.61501852 0.00000272
Cu 3.61503036 5.42250694 1.80749633
Cu 5.42250131 3.61498768 1.80747895
Cu 5.42250878 5.42248186 10.84499231
Cu 3.61499755 3.61500644 3.61500857
Cu 3.61500040 5.42246047 5.42249532
Cu 5.42248393 3.61499659 5.42251909
Cu 5.42251529 5.42250317 3.61500945
Cu 3.61496978 3.61500266 7.23001181
Cu 3.61498531 5.42250683 9.03749186
Cu 5.42251917 3.61502079 9.03748881
Cu 5.42252835 5.42249502 7.23004033
Cu 3.61498957 7.23000006 0.00000365
Cu 3.61498442 9.03746456 1.80748355
Cu 5.42252074 7.22999227 1.80749294
Cu 5.42252942 9.03750859 0.00001335
Cu 3.61501618 7.22998079 3.61500189
Cu 3.61500230 9.03749564 5.42247773
Cu 5.42250852 7.22996589 5.42248082
Cu 5.42248326 9.03749062 3.61501611
Cu 3.61503219 7.23003297 7.23001542
Cu 3.61500805 9.03745243 9.03752184
Cu 5.42255149 7.23000778 9.03750406
Cu 5.42251318 9.03751325 7.23000210
Cu 7.22999190 0.00000597 10.84497220
Cu 7.22996197 1.80752580 1.80749033
Cu 9.03751353 0.00002964 1.80752363
Cu 9.03748834 1.80750524 10.84497628
Cu 7.22999724 0.00001955 3.61500005
Cu 7.22994274 1.80745412 5.42248351
Cu 9.03752578 0.00000275 5.42250222
Cu 9.03747321 1.80750170 3.61495427
Cu 7.23000610 0.00002220 7.22998319
Cu 7.23002084 1.80748451 9.03750234
Cu 9.03749662 0.00000066 9.03752972
Cu 9.03751681 1.80748535 7.22994455
Cu 7.23001708 3.61501395 0.00000270
Cu 7.22998824 5.42253051 1.80746395
Cu 9.03748376 3.61496970 1.80750679
Cu 9.03749006 5.42254069 10.84499977
Cu 7.22999458 3.61501016 3.61498489
Cu 7.22997781 5.42250941 5.42248971
Cu 9.03751869 3.61500544 5.42250173
Cu 9.03750068 5.42249708 3.61500751
Cu 7.22999144 3.61495995 7.23000096
Cu 7.22999018 5.42247147 9.03751491
Cu 9.03749177 3.61496416 9.03749794
Cu 9.03748593 5.42246503 7.23000561
Cu 7.22997847 7.23001305 10.84498161
Cu 7.23001871 9.03750724 1.80750157
Cu 9.03748432 7.23001675 1.80750941
Cu 9.03749213 9.03751032 10.84497907
Cu 7.22997393 7.22999690 3.61500083
Cu 7.23000781 9.03750009 5.42252404
Cu 9.03747371 7.23001007 5.42250390
Cu 9.03752623 9.03750128 3.61500570
Cu 7.23003427 7.23001460 7.23001149
Cu 7.22999158 9.03750155 9.03746663
Cu 9.03748258 7.23001163 9.03746411
Cu 9.03750116 9.03749915 7.23000714
108
Step=20 Lattice="10.845 0 0  0 10.845 0  0 0 10.845" Properties=species:S:1:pos:R:3
Cu 10.84495932 10.84498297 0.00005003
Cu 0.00000635 1.80753417 1.80752178
Cu 1.80747334 0.00001913 1.80748625
Cu 1.80748582 1.80750145 10.84493818
Cu 0.00004603 10.84497091 3.61503860
Cu 0.00000406 1.80755849 5.42247260
Cu 1.80748624 0.00001102 5.42241109
Cu 1.80753155 1.80755887 3.61504363
Cu 0.00002864 10.84499179 7.23004979
Cu 0.00004133 1.80751320 9.03749904
Cu 1.80748426 10.84494869 9.03754758
Cu 1.80741230 1.80748287 7.23000537
Cu 0.00003282 3.61506762 0.00003832
Cu 10.84498705 5.42252653 1.80744868
Cu 1.80755548 3.61499137 1.80747205
Cu 1.80747323 5.42249515 10.84498322
Cu 0.00008967 3.61496904 3.61500013
Cu 10.84499975 5.42249871 5.42250104
Cu 1.80747950 3.61497440 5.42246456
Cu 1.80743948 5.42250619 3.61503797
Cu 10.84497705 3.61497538 7.22998625
Cu 10.84498033 5.42244049 9.03755310
Cu 1.80751609 3.61496930 9.03751065
Cu 1.80748121 5.42248918 7.23001330
Cu 0.00003652 7.23005799 0.00006657
Cu 10.84498875 9.03747772 1.80750279
Cu 1.80750374 7.22996840 1.80747417
Cu 1.80753097 9.03756285 10.84498983
Cu 10.84497288 7.22998632 3.61495928
Cu 10.84498779 9.03751438 5.42249560
Cu 1.80754771 7.23000359 5.42251796
Cu 1.80749272 9.03754989 3.61495025
Cu 10.84498657 7.22995093 7.23003168
Cu 0.00003244 9.03747709 9.03756475
Cu 1.80748682 7.22994260 9.03748766
Cu 1.80751295 9.03748827 7.23008889
Cu 3.61503264 0.00006641 0.00005393
Cu 3.61493163 1.80748257 1.80739037
Cu 5.42247294 0.00004192 1.80746532
Cu 5.42247333 1.80751055 0.00003013
Cu 3.61498447 10.84498742 3.61503099
Cu 3.61500874 1.80748625 5.42251134
Cu 5.42250166 0.00000771 5.42257839
Cu 5.42248650 1.80747613 3.61505503
Cu 3.61497058 0.00006596 7.22999112
Cu 3.61500157 1.80752675 9.03754706
Cu 5.42253827 10.84498949 9.03748427
Cu 5.42251245 1.80750294 7.22997330
Cu 3.61501497 3.61503711 0.00000545
Cu 3.61506081 5.42251390 1.80749264
Cu 5.42250262 3.61497532 1.80745784
Cu 5.42251758 5.42246367 10.84498459
Cu 3.61499509 3.61501290 3.61501717
Cu 3.61500079 5.42242082 5.42249062
Cu 5.42246781 3.61499316 5.42253824
Cu 5.42253063 5.42250635 3.61501894
Cu 3.61493947 3.61500534 7.23002366
Cu 3.61497057 5.42251369 9.03748370
Cu 5.42253841 3.61504165 9.03747758
Cu 5.42255679 5.42249003 7.23008080
Cu 3.61497910 7.23000012 0.00000731
Cu 3.61496879 9.03742900 1.80746705
Cu 5.42254155 7.22998452 1.80748585
Cu 5.42255893 9.03751721 0.00002675
Cu 3.61503240 7.22996152 3.61500379
Cu 3.61500461 9.03749127 5.42245539
Cu 5.42251707 7.22993166 5.42246159
Cu 5.42246647 9.03748121 3.61503227
Cu 3.61506449 7.23006605 7.23003089
Cu 3.61501612 9.03740471 9.03754376
Cu 5.42260314 7.23001559 9.03750814
Cu 5.42252641 9.03752655 7.23000420
Cu 7.22998378 0.00001197 10.84494430
Cu 7.22992381 1.80755169 1.80748063
Cu 9.03752710 0.00005939 1.80754734
Cu 9.03747664 1.80751050 10.84495248
Cu 7.22999448 0.00003917 3.61500011
Cu 7.22988529 1.80740810 5.42246697
Cu 9.03755164 0.00000550 5.42250445
Cu 9.03744633 1.80750341 3.61490839
Cu 7.23001223 0.00004447 7.22996634
Cu 7.23004174 1.80746897 9.03750469
Cu 9.03749323 0.00000132 9.03755953
Cu 9.03753367 1.80747065 7.22988892
Cu 7.23003421 3.61502796 0.00000541
Cu 7.22997645 5.42256113 1.80742779
Cu 9.03746746 3.61493930 1.80751360
Cu 9.03748009 5.42258151 10.84499954
Cu 7.22998914 3.61502035 3.61496973
Cu 7.22995555 5.42251886 5.42247940
Cu 9.03753743 3.61501090 5.42250346
Cu 9.03750136 5.42249416 3.61501504
Cu 7.22998285 3.61491977 7.23000193
Cu 7.22998033 5.42244285 9.03752987
Cu 9.03748352 3.61492821 9.03749586
Cu 9.03747182 5.42242995 7.23001125
Cu 7.22995688 7.23002615 10.84496316
Cu 7.23003748 9.03751450 1.80750315
Cu 9.03746859 7.23003356 1.80751885
Cu 9.03748423 9.03752067 10.84495807
Cu 7.22994777 7.22999379 3.61500166
Cu 7.23001565 9.03750017 5.42254816
Cu 9.03744734 7.23002018 5.42250781
Cu 9.03755255 9.03750255 3.61501141
Cu 7.23006865 7.23002924 7.23002303
Cu 7.22998313 9.03750311 9.03743315
Cu 9.03746510 7.23002331 9.03742811
Cu 9.03750233 9.03749830 7.23001430
108
Step=30 Lattice="10.845 0 0  0 10.845 0  0 0 10.845" Properties=species:S:1:pos:R:3
Cu 10.84493888 10.84497441 0.00007516
Cu 0.00000954 1.80755133 1.80753271
Cu 1.80745995 0.00002874 1.80747934
Cu 1.80747870 1.80750218 10.84490713
Cu 0.00006915 10.84495630 3.61505798
Cu 0.00000609 1.80758787 5.42245884
Cu 1.80747933 0.00001655 5.42236642
Cu 1.80754740 1.80758844 3.61506554
Cu 0.00004303 10.84498766 7.23007480
Cu 0.00006209 1.80751982 9.03749856
Cu 1.80747635 10.84492291 9.03757148
Cu 1.80736824 1.80747427 7.23000807
Cu 0.00004930 3.61510158 0.00005757
Cu 10.84498054 5.42253986 1.80742291
Cu 1.80758335 3.61498703 1.80745801
Cu 1.80745979 5.42249271 10.84497479
Cu 0.00013470 3.61495349 3.61500020
Cu 10.84499963 5.42249807 5.42250156
Cu 1.80746920 3.61496154 5.42244676
Cu 1.80740908 5.42250929 3.61505704
Cu 10.84496552 3.61496302 7.22997935
Cu 10.84497044 5.42241061 9.03757977
Cu 1.80752417 3.61495388 9.03751600
Cu 1.80747177 5.42248374 7.23001999
Cu 0.00005486 7.23008712 0.00010000
Cu 10.84498309 9.03746653 1.80750420
Cu 1.80750562 7.22995253 1.80746120
Cu 1.80754652 9.03759442 10.84498472
Cu 10.84495926 7.22997945 3.61493882
Cu 10.84498166 9.03752161 5.42249339
Cu 1.80757168 7.23000539 5.42252698
Cu 1.80748907 9.03757495 3.61492525
Cu 10.84497982 7.22992629 7.23004759
Cu 0.00004873 9.03746558 9.03759727
Cu 1.80748020 7.22991376 9.03748146
Cu 1.80751945 9.03748238 7.23013354
Cu 3.61504904 0.00009977 0.00008101
Cu 3.61489728 1.80747382 1.80733531
Cu 5.42245935 0.00006297 1.80744790
Cu 5.42245993 1.80751585 0.00004527
Cu 3.61497667 10.84498110 3.61504656
Cu 3.61501312 1.80747934 5.42251703
Cu 5.42250250 0.00001158 5.42261776
Cu 5.42247973 1.80746414 3.61508267
Cu 3.61495581 0.00009909 7.22998665
Cu 3.61500236 1.80754019 9.03757069
Cu 5.42255749 10.84498422 9.03747637
Cu 5.42251870 1.80750442 7.22995990
Cu 3.61502248 3.61505574 0.00000819
Cu 3.61509135 5.42252088 1.80748894
Cu 5.42250394 3.61496293 1.80743666
Cu 5.42252641 5.42244542 10.84497685
Cu 3.61499263 3.61501938 3.61502579
Cu 3.61500119 5.42238104 5.42248591
Cu 5.42245164 3.61498973 5.42255745
Cu 5.42254602 5.42250953 3.61502845
Cu 3.61490907 3.61500802 7.23003555
Cu 3.61495578 5.42252056 9.03747551
Cu 5.42255770 3.61506257 9.03746631
Cu 5.42258532 5.42248503 7.23012139
Cu 3.61496860 7.23000018 0.00001098
Cu 3.61495312 9.03739334 1.80745050
Cu 5.42256243 7.22997675 1.80747874
Cu 5.42258853 9.03752585 0.00004019
Cu 3.61504868 7.22994219 3.61500570
Cu 3.61500692 9.03748689 5.42243298
Cu 5.42252565 7.22989734 5.42244229
Cu 5.42244962 9.03747177 3.61504848
Cu 3.61509689 7.23009923 7.23004640
Cu 3.61502421 9.03735684 9.03756574
Cu 5.42265495 7.23002342 9.03751223
Cu 5.42253968 9.03753989 7.23000631
Cu 7.22997563 0.00001798 10.84491633
Cu 7.22988554 1.80757765 1.80747090
Cu 9.03754071 0.00008921 1.80757112
Cu 9.03746491 1.80751577 10.84492861
Cu 7.22999171 0.00005884 3.61500016
Cu 7.22982768 1.80736194 5.42245038
Cu 9.03757757 0.00000827 5.42250669
Cu 9.03741937 1.80750512 3.61486238
Cu 7.23001837 0.00006680 7.22994943
Cu 7.23006271 1.80745339 9.03750705
Cu 9.03748984 0.00000198 9.03758944
Cu 9.03755058 1.80745591 7.22983313
Cu 7.23005139 3.61504200 0.00000813
Cu 7.22996462 5.42259183 1.80739152
Cu 9.03745111 3.61490881 1.80752043
Cu 9.03747009 5.42262245 10.84499931
Cu 7.22998369 3.61503058 3.61495452
Cu 7.22993322 5.42252833 5.42246905
Cu 9.03755624 3.61501637 5.42250520
Cu 9.03750204 5.42249122 3.61502259
Cu 7.22997423 3.61487947 7.23000290
Cu 7.22997045 5.42241415 9.03754487
Cu 9.03747525 3.61489216 9.03749379
Cu 9.03745766 5.42239476 7.23001689
Cu 7.22993522 7.23003928 10.84494465
Cu 7.23005630 9.03752178 1.80750474
Cu 9.03745282 7.23005041 1.80752832
Cu 9.03747631 9.03753105 10.84493700
Cu 7.22992153 7.22999067 3.61500250
Cu 7.23002351 9.03750026 5.42257234
Cu 9.03742089 7.23003032 5.42251173
Cu 9.03757894 9.03750384 3.61501714
Cu 7.23010313 7.23004393 7.23003459
Cu 7.22997465 9.03750468 9.03739957
Cu 9.03744757 7.23003502 9.03739200
Cu 9.03750350 9.03749744 7.23002149
108
Step=40 Lattice="10.845 0 0  0 10.845 0  0 0 10.845" Properties=species:S:1:pos:R:3
Cu 10.84491840 10.84496584 0.00010036
Cu 0.00001274 1.80756854 1.80754368
Cu 1.80744652 0.00003838 1.80747242
Cu 1.80747156 1.80750291 10.84487599
Cu 0.00009233 10.84494165 3.61507742
Cu 0.00000814 1.80761732 5.42244504
Cu 1.80747241 0.00002210 5.42232165
Cu 1.80756328 1.80761809 3.61508751
Cu 0.00005745 10.84498352 7.23009988
Cu 0.00008291 1.80752647 9.03749807
Cu 1.80746842 10.84489707 9.03759544
Cu 1.80732408 1.80746565 7.23001077
Cu 0.00006583 3.61513563 0.00007687
Cu 10.84497402 5.42255322 1.80739707
Cu 1.80761129 3.61498269 1.80744394
Cu 1.80744631 5.42249027 10.84496634
Cu 0.00017986 3.61493790 3.61500026
Cu 10.84499950 5.42249742 5.42250208
Cu 1.80745887 3.61494864 5.42242892
Cu 1.80737860 5.42251241 3.61507616
Cu 10.84495396 3.61495062 7.22997243
Cu 10.84496054 5.42238064 9.03760651
Cu 1.80753227 3.61493841 9.03752136
Cu 1.80746231 5.42247829 7.23002669
Cu 0.00007325 7.23011633 0.00013353
Cu 10.84497742 9.03745532 1.80750560
Cu 1.80750750 7.22993662 1.80744819
Cu 1.80756212 9.03762608 10.84497960
Cu 10.84494560 7.22997257 3.61491831
Cu 10.84497551 9.03752885 5.42249118
Cu 1.80759571 7.23000719 5.42253603
Cu 1.80748541 9.03760007 3.61490020
Cu 10.84497306 7.22990158 7.23006355
Cu 0.00006507 9.03745404 9.03762988
Cu 1.80747357 7.22988486 9.03747524
Cu 1.80752597 9.03747647 7.23017831
Cu 3.61506547 0.00013321 0.00010817
Cu 3.61486285 1.80746504 1.80728010
Cu 5.42244573 0.00008408 1.80743043
Cu 5.42244650 1.80752117 0.00006044
Cu 3.61496886 10.84497476 3.61506217
Cu 3.61501752 1.80747242 5.42252274
Cu 5.42250334 0.00001547 5.42265724
Cu 5.42247293 1.80745212 3.61511038
Cu 3.61494100 0.00013230 7.22998218
Cu 3.61500316 1.80755366 9.03759439
Cu 5.42257677 10.84497893 9.03746844
Cu 5.42252497 1.80750590 7.22994645
Cu 3.61503002 3.61507443 0.00001094
Cu 3.61512198 5.42252788 1.80748524
Cu 5.42250526 3.61495050 1.80741543
Cu 5.42253526 5.42242713 10.84496910
Cu 3.61499016 3.61502587 3.61503444
Cu 3.61500159 5.42234117 5.42248119
Cu 5.42243543 3.61498628 5.42257671
Cu 5.42256144 5.42251273 3.61503799
Cu 3.61487859 3.61501070 7.23004746
Cu 3.61494096 5.42252746 9.03746730
Cu 5.42257705 3.61508355 9.03745502
Cu 5.42261392 5.42248001 7.23016208
Cu 3.61495807 7.23000025 0.00001466
Cu 3.61493740 9.03735759 1.80743390
Cu 5.42258335 7.22996896 1.80747161
Cu 5.42261821 9.03753452 0.00005366
Cu 3.61506500 7.22992281 3.61500761
Cu 3.61500925 9.03748249 5.42241051
Cu 5.42253425 7.22986292 5.42242294
Cu 5.42243273 9.03746230 3.61506473
Cu 3.61512937 7.23013249 7.23006195
Cu 3.61503233 9.03730885 9.03758778
Cu 5.42270689 7.23003127 9.03751633
Cu 5.42255298 9.03755326 7.23000842
Cu 7.22996746 0.00002401 10.84488828
Cu 7.22984717 1.80760368 1.80746114
Cu 9.03755436 0.00011912 1.80759497
Cu 9.03745314 1.80752106 10.84490468
Cu 7.22998893 0.00007857 3.61500022
Cu 7.22976991 1.80731565 5.42243375
Cu 9.03760358 0.00001104 5.42250893
Cu 9.03739234 1.80750684 3.61481625
Cu 7.23002453 0.00008919 7.22993247
Cu 7.23008374 1.80743776 9.03750942
Cu 9.03748643 0.00000265 9.03761942
Cu 9.03756753 1.80744112 7.22977719
Cu 7.23006862 3.61505608 0.00001086
Cu 7.22995276 5.42262262 1.80735516
Cu 9.03743472 3.61487824 1.80752727
Cu 9.03746007 5.42266350 10.84499908
Cu 7.22997823 3.61504083 3.61493928
Cu 7.22991084 5.42253782 5.42245867
Cu 9.03757509 3.61502186 5.42250695
Cu 9.03750273 5.42248828 3.61503016
Cu 7.22996560 3.61483906 7.23000387
Cu 7.22996054 5.42238537 9.03755991
Cu 9.03746695 3.61485600 9.03749170
Cu 9.03744346 5.42235949 7.23002256
Cu 7.22991350 7.23005244 10.84492610
Cu 7.23007518 9.03752909 1.80750632
Cu 9.03743700 7.23006731 1.80753782
Cu 9.03746837 9.03754146 10.84491589
Cu 7.22989522 7.22998754 3.61500333
Cu 7.23003139 9.03750035 5.42259660
Cu 9.03739437 7.23004048 5.42251566
Cu 9.03760541 9.03750512 3.61502288
Cu 7.23013771 7.23005866 7.23004619
Cu 7.22996616 9.03750624 9.03736590
Cu 9.03742999 7.23004675 9.03735580
Cu 9.03750467 9.03749659 7.23002869
108
Step=50 Lattice="10.845 0 0  0 10.845 0  0 0 10.845" Properties=species:S:1:pos:R:3
Cu 10.84489786 10.84495724 0.00012562
Cu 0.00001594 1.80758579 1.80755467
Cu 1.80743306 0.00004804 1.80746548
Cu 1.80746440 1.80750365 10.84484478
Cu 0.00011556 10.84492697 3.61509690
Cu 0.00001019 1.80764685 5.42243121
Cu 1.80746546 0.00002766 5.42227676
Cu 1.80757921 1.80764781 3.61510953
Cu 0.00007191 10.84497938 7.23012502
Cu 0.00010377 1.80753313 9.03749759
Cu 1.80746047 10.84487116 9.03761946
Cu 1.80727980 1.80745700 7.23001348
Cu 0.00008240 3.61516977 0.00009622
Cu 10.84496748 5.42256662 1.80737116
Cu 1.80763929 3.61497833 1.80742983
Cu 1.80743280 5.42248782 10.84495787
Cu 0.00022512 3.61492227 3.61500033
Cu 10.84499938 5.42249677 5.42250260
Cu 1.80744852 3.61493572 5.42241103
Cu 1.80734805 5.42251553 3.61509532
Cu 10.84494238 3.61493819 7.22996549
Cu 10.84495060 5.42235060 9.03763332
Cu 1.80754039 3.61492292 9.03752673
Cu 1.80745282 5.42247282 7.23003340
Cu 0.00009169 7.23014560 0.00016713
Cu 10.84497174 9.03744407 1.80750701
Cu 1.80750939 7.22992067 1.80743515
Cu 1.80757775 9.03765780 10.84497447
Cu 10.84493191 7.22996566 3.61489776
Cu 10.84496935 9.03753611 5.42248896
Cu 1.80761980 7.23000901 5.42254509
Cu 1.80748173 9.03762526 3.61487508
Cu 10.84496628 7.22987681 7.23007954
Cu 0.00008144 9.03744247 9.03766256
Cu 1.80746691 7.22985588 9.03746901
Cu 1.80753251 9.03747055 7.23022318
Cu 3.61508195 0.00016674 0.00013539
Cu 3.61482833 1.80745624 1.80722476
Cu 5.42243207 0.00010524 1.80741292
Cu 5.42243304 1.80752650 0.00007565
Cu 3.61496102 10.84496841 3.61507781
Cu 3.61502193 1.80746547 5.42252846
Cu 5.42250418 0.00001936 5.42269681
Cu 5.42246612 1.80744008 3.61513816
Cu 3.61492615 0.00016560 7.22997770
Cu 3.61500395 1.80756717 9.03761815
Cu 5.42259608 10.84497362 9.03746050
Cu 5.42253126 1.80750739 7.22993298
Cu 3.61503757 3.61509316 0.00001369
Cu 3.61515267 5.42253489 1.80748152
Cu 5.42250658 3.61493804 1.80739415
Cu 5.42254414 5.42240879 10.84496132
Cu 3.61498768 3.61503238 3.61504310
Cu 3.61500199 5.42230119 5.42247646
Cu 5.42241918 3.61498283 5.42259602
Cu 5.42257690 5.42251593 3.61504755
Cu 3.61484803 3.61501340 7.23005941
Cu 3.61492611 5.42253436 9.03745907
Cu 5.42259643 3.61510457 9.03744370
Cu 5.42264259 5.42247497 7.23020287
Cu 3.61494752 7.23000031 0.00001835
Cu 3.61492165 9.03732175 1.80741727
Cu 5.42260433 7.22996114 1.80746447
Cu 5.42264796 9.03754320 0.00006717
Cu 3.61508136 7.22990338 3.61500952
Cu 3.61501157 9.03747809 5.42238799
Cu 5.42254287 7.22982843 5.42240355
Cu 5.42241580 9.03745281 3.61508102
Cu 3.61516192 7.23016584 7.23007755
Cu 3.61504047 9.03726075 9.03760987
Cu 5.42275896 7.23003915 9.03752043
Cu 5.42256631 9.03756667 7.23001054
Cu 7.22995927 0.00003005 10.84486017
Cu 7.22980871 1.80762977 1.80745136
Cu 9.03756804 0.00014910 1.80761886
Cu 9.03744135 1.80752635 10.84488069
Cu 7.22998614 0.00009834 3.61500027
Cu 7.22971200 1.80726926 5.42241708
Cu 9.03762964 0.00001382 5.42251118
Cu 9.03736524 1.80750856 3.61477001
Cu 7.23003070 0.00011164 7.22991548
Cu 7.23010481 1.80742210 9.03751179
Cu 9.03748301 0.00000332 9.03764947
Cu 9.03758453 1.80742631 7.22972112
Cu 7.23008589 3.61507019 0.00001360
Cu 7.22994087 5.42265347 1.80731870
Cu 9.03741830 3.61484760 1.80753414
Cu 9.03745002 5.42270465 10.84499885
Cu 7.22997275 3.61505111 3.61492400
Cu 7.22988840 5.42254734 5.42244827
Cu 9.03759399 3.61502736 5.42250870
Cu 9.03750341 5.42248533 3.61503775
Cu 7.22995694 3.61479856 7.23000484
Cu 7.22995061 5.42235652 9.03757499
Cu 9.03745863 3.61481976 9.03748961
Cu 9.03742924 5.42232412 7.23002823
Cu 7.22989173 7.23006564 10.84490750
Cu 7.23009409 9.03753640 1.80750791
Cu 9.03742114 7.23008425 1.80754733
Cu 9.03746041 9.03755190 10.84489472
Cu 7.22986885 7.22998441 3.61500417
Cu 7.23003929 9.03750044 5.42262091
Cu 9.03736778 7.23005067 5.42251960
Cu 9.03763194 9.03750641 3.61502864
Cu 7.23017236 7.23007342 7.23005781
Cu 7.22995764 9.03750781 9.03733216
Cu 9.03741237 7.23005852 9.03731951
Cu 9.03750585 9.03749573 7.23003591
108
Step=60 Lattice="10.845 0 0  0 10.845 0  0 0 10.845" Properties=species:S:1:pos:R:3
Cu 10.84487728 10.84494862 0.00015093
Cu 0.00001915 1.80760307 1.80756569
Cu 1.80741957 0.00005771 1.80745852
Cu 1.80745723 1.80750438 10.84481351
Cu 0.00013885 10.84491225 3.61511643
Cu 0.00001224 1.80767644 5.42241735
Cu 1.80745850 0.00003323 5.42223178
Cu 1.80759517 1.80767759 3.61513160
Cu 0.00008640 10.84497522 7.23015021
Cu 0.00012468 1.80753981 9.03749710
Cu 1.80745251 10.84484521 9.03764353
Cu 1.80723544 1.80744834 7.23001620
Cu 0.00009900 3.61520397 0.00011560
Cu 10.84496093 5.42258004 1.80734520
Cu 1.80766736 3.61497396 1.80741569
Cu 1.80741926 5.42248537 10.84494939
Cu 0.00027048 3.61490660 3.61500040
Cu 10.84499925 5.42249612 5.42250312
Cu 1.80743815 3.61492276 5.42239310
Cu 1.80731744 5.42251866 3.61511453
Cu 10.84493077 3.61492574 7.22995854
Cu 10.84494065 5.42232050 9.03766018
Cu 1.80754853 3.61490738 9.03753212
Cu 1.80744331 5.42246735 7.23004013
Cu 0.00011016 7.23017494 0.00020081
Cu 10.84496605 9.03743280 1.80750843
Cu 1.80751128 7.22990468 1.80742208
Cu 1.80759341 9.03768960 10.84496933
Cu 10.84491819 7.22995874 3.61487716
Cu 10.84496317 9.03754339 5.42248673
Cu 1.80764393 7.23001082 5.42255418
Cu 1.80747805 9.03765049 3.61484991
Cu 10.84495948 7.22985198 7.23009557
Cu 0.00009785 9.03743088 9.03769532
Cu 1.80746025 7.22982684 9.03746277
Cu 1.80753906 9.03746462 7.23026815
Cu 3.61509847 0.00020033 0.00016267
Cu 3.61479374 1.80744743 1.80716931
Cu 5.42241838 0.00012644 1.80739537
Cu 5.42241954 1.80753183 0.00009090
Cu 3.61495316 10.84496205 3.61509349
Cu 3.61502635 1.80745852 5.42253420
Cu 5.42250502 0.00002326 5.42273646
Cu 5.42245929 1.80742800 3.61516600
Cu 3.61491127 0.00019897 7.22997320
Cu 3.61500475 1.80758070 9.03764196
Cu 5.42261544 10.84496831 9.03745254
Cu 5.42253756 1.80750888 7.22991947
Cu 3.61504515 3.61511193 0.00001645
Cu 3.61518344 5.42254192 1.80747780
Cu 5.42250791 3.61492556 1.80737282
Cu 5.42255303 5.42239041 10.84495352
Cu 3.61498519 3.61503891 3.61505179
Cu 3.61500239 5.42226114 5.42247171
Cu 5.42240289 3.61497937 5.42261536
Cu 5.42259240 5.42251914 3.61505714
Cu 3.61481741 3.61501609 7.23007138
Cu 3.61491122 5.42254129 9.03745082
Cu 5.42261587 3.61512564 9.03743236
Cu 5.42267132 5.42246993 7.23024374
Cu 3.61493695 7.23000037 0.00002205
Cu 3.61490586 9.03728583 1.80740060
Cu 5.42262535 7.22995332 1.80745731
Cu 5.42267778 9.03755191 0.00008070
Cu 3.61509775 7.22988391 3.61501144
Cu 3.61501390 9.03747367 5.42236542
Cu 5.42255151 7.22979386 5.42238412
Cu 5.42239884 9.03744331 3.61509735
Cu 3.61519455 7.23019925 7.23009317
Cu 3.61504862 9.03721254 9.03763201
Cu 5.42281114 7.23004703 9.03752455
Cu 5.42257967 9.03758010 7.23001267
Cu 7.22995106 0.00003611 10.84483199
Cu 7.22977016 1.80765592 1.80744156
Cu 9.03758174 0.00017914 1.80764281
Cu 9.03742953 1.80753166 10.84485666
Cu 7.22998335 0.00011816 3.61500033
Cu 7.22965397 1.80722277 5.42240037
Cu 9.03765577 0.00001660 5.42251343
Cu 9.03733809 1.80751029 3.61472366
Cu 7.23003688 0.00013413 7.22989845
Cu 7.23012593 1.80740640 9.03751416
Cu 9.03747959 0.00000398 9.03767959
Cu 9.03760156 1.80741146 7.22966493
Cu 7.23010319 3.61508433 0.00001634
Cu 7.22992896 5.42268440 1.80728218
Cu 9.03740183 3.61481689 1.80754102
Cu 9.03743995 5.42274589 10.84499862
Cu 7.22996726 3.61506140 3.61490868
Cu 7.22986592 5.42255688 5.42243785
Cu 9.03761293 3.61503287 5.42251045
Cu 9.03750410 5.42248237 3.61504535
Cu 7.22994826 3.61475797 7.23000582
Cu 7.22994066 5.42232761 9.03759010
Cu 9.03745030 3.61478345 9.03748752
Cu 9.03741498 5.42228869 7.23003392
Cu 7.22986991 7.23007887 10.84488887
Cu 7.23011305 9.03754374 1.80750951
Cu 9.03740525 7.23010122 1.80755687
Cu 9.03745244 9.03756235 10.84487350
Cu 7.22984243 7.22998127 3.61500501
Cu 7.23004720 9.03750053 5.42264527
Cu 9.03734114 7.23006088 5.42252355
Cu 9.03765852 9.03750771 3.61503442
Cu 7.23020709 7.23008821 7.23006946
Cu 7.22994911 9.03750939 9.03729834
Cu 9.03739471 7.23007031 9.03728314
Cu 9.03750703 9.03749487 7.23004314
108
Step=70 Lattice="10.845 0 0  0 10.845 0  0 0 10.845" Properties=species:S:1:pos:R:3
Cu 10.84485666 10.84493999 0.00017629
Cu 0.00002237 1.80762039 1.80757673
Cu 1.80740606 0.00006741 1.80745155
Cu 1.80745005 1.80750512 10.84478217
Cu 0.00016218 10.84489751 3.61513599
Cu 0.00001430 1.80770608 5.42240346
Cu 1.80745153 0.00003882 5.42218671
Cu 1.80761116 1.80770743 3.61515372
Cu 0.00010092 10.84497106 7.23017544
Cu 0.00014563 1.80754649 9.03749661
Cu 1.80744453 10.84481920 9.03766765
Cu 1.80719098 1.80743966 7.23001892
Cu 0.00011564 3.61523825 0.00013503
Cu 10.84495436 5.42259349 1.80731919
Cu 1.80769548 3.61496959 1.80740153
Cu 1.80740569 5.42248291 10.84494088
Cu 0.00031593 3.61489091 3.61500046
Cu 10.84499913 5.42249546 5.42250365
Cu 1.80742775 3.61490979 5.42237514
Cu 1.80728676 5.42252180 3.61513377
Cu 10.84491913 3.61491326 7.22995157
Cu 10.84493068 5.42229034 9.03768710
Cu 1.80755669 3.61489182 9.03753752
Cu 1.80743379 5.42246186 7.23004688
Cu 0.00012867 7.23020433 0.00023455
Cu 10.84496035 9.03742151 1.80750984
Cu 1.80751318 7.22988866 1.80740899
Cu 1.80760911 9.03772146 10.84496417
Cu 10.84490444 7.22995181 3.61485652
Cu 10.84495698 9.03755068 5.42248450
Cu 1.80766812 7.23001264 5.42256328
Cu 1.80747436 9.03767578 3.61482469
Cu 10.84495267 7.22982711 7.23011163
Cu 0.00011429 9.03741927 9.03772814
Cu 1.80745357 7.22979774 9.03745651
Cu 1.80754562 9.03745868 7.23031321
Cu 3.61511501 0.00023399 0.00019001
Cu 3.61475909 1.80743860 1.80711374
Cu 5.42240466 0.00014769 1.80737779
Cu 5.42240602 1.80753718 0.00010617
Cu 3.61494529 10.84495567 3.61510920
Cu 3.61503078 1.80745155 5.42253995
Cu 5.42250586 0.00002717 5.42277619
Cu 5.42245245 1.80741591 3.61519389
Cu 3.61489635 0.00023240 7.22996870
Cu 3.61500555 1.80759426 9.03766581
Cu 5.42263484 10.84496298 9.03744457
Cu 5.42254387 1.80751037 7.22990594
Cu 3.61505273 3.61513074 0.00001922
Cu 3.61521426 5.42254897 1.80747407
Cu 5.42250923 3.61491305 1.80735145
Cu 5.42256194 5.42237199 10.84494571
Cu 3.61498271 3.61504544 3.61506049