108
Step=0 Lattice="10.845 0 0  0 10.845 0  0 0 10.845" Properties=species:S:1:pos:R:3
Cu 10.83446573 10.84064166 0.01295573
Cu 0.00172418 1.81633568 1.81310477
Cu 1.80059806 0.00498881 1.80394305
Cu 1.80377399 1.80788803 10.82904958
Cu 0.01187604 10.83757333 3.62488819
Cu 0.00103702 1.82254354 5.41536576
Cu 1.80392931 0.00284957 5.39965002
Cu 1.81572195 1.82266019 3.62616778
Cu 0.00740156 10.84285156 7.24286787
Cu 0.01061682 1.81088675 9.03727962
Cu 1.80351380 10.83177958 9.04983536
Cu 1.78490586 1.80306113 7.23138463
Cu 0.00840261 3.63240697 0.00992886
Cu 10.84158569 5.42931061 1.79429025
Cu 1.82185994 3.61283803 1.80026638
Cu 1.80064324 5.42125767 10.84066993
Cu 0.02307195 3.60704558 3.61494798
Cu 10.84489669 5.42220621 5.42279122
Cu 1.80223724 3.60839039 5.41344326
Cu 1.79190321 5.42411340 3.62473913
Cu 10.83909031 3.60865492 7.22648790
Cu 10.83983318 5.40713155 9.05122229
Cu 1.81162585 3.60709882 9.04022661
Cu 1.80264715 5.41967955 7.23343302
Cu 0.00936352 7.24499740 0.01712982
Cu 10.84209472 9.03179177 1.80818349
Cu 1.80850356 7.22180433 1.80085504
Cu 1.81551966 9.05370597 10.84241660
Cu 10.83802201 7.22645667 3.60453274
Cu 10.84191336 9.04114627 5.42144337
Cu 1.81980881 7.23096099 5.42716108
Cu 1.80562042 9.05026971 3.60211358
Cu 10.84148457 7.21730927 7.23817689
Cu 0.00831501 9.03157234 9.05423119
Cu 1.80408104 7.21514790 9.03436276
Cu 1.81084894 9.03450000 7.25289808
Cu 3.62345505 0.01705525 0.01382854
Cu 3.59733915 1.80305244 1.77932405
Cu 5.41550664 0.01077342 1.79861586
Cu 5.41566704 1.81028825 0.00764860
Cu 3.61101917 10.84177206 3.62288194
Cu 3.61719734 1.80398588 5.42547116
Cu 5.42285162 0.00190443 5.44271333
Cu 5.41887193 1.80136862 3.62913700
Cu 3.60732519 0.01698653 7.22780674
Cu 3.61545420 1.81440038 9.04960657
Cu 5.43230354 10.84231434 9.03339943
Cu 5.42564203 1.80827234 7.22324218
Cu 3.61888782 3.62462558 0.00134768
Cu 3.63069609 5.42606584 1.80560356
Cu 5.42311837 3.60863808 1.79666551
Cu 5.42699190 5.41314259 10.84098090
Cu 3.61378323 3.61832503 3.61936284
Cu 3.61520650 5.40208675 5.42017328
Cu 5.41418132 3.61325273 5.43240896
Cu 5.43040370 5.42403064 3.61982775
Cu 3.59935532 3.61633980 7.23614364
Cu 3.60744345 5.42606711 9.03327826
Cu 5.43238510 3.62566389 9.03173204
Cu 5.43715996 5.41994565 7.25082946
Cu 3.60967302 7.22995679 0.00186399
Cu 3.60698226 9.01919557 1.79899470
Cu 5.43322797 7.22605104 1.80380234
Cu 5.43769433 9.04194586 0.00690452
Cu 3.62332473 7.22000759 3.61595634
Cu 3.61617122 9.03524539 5.41103360
Cu 5.42691417 7.21237931 5.41268749
Cu 5.41386191 9.03270189 3.62329518
Cu 3.63171747 7.24698459 7.23794934
Cu 3.61926507 9.01298286 9.04886622
Cu 5.44910367 7.23400635 9.03962142
Cu 5.42927823 9.04435837 7.23107059
Cu 7.22581879 0.00309910 10.83068741
Cu 7.21029756 1.82080229 1.80247177
Cu 9.04445957 0.01531572 1.81967923
Cu 9.03151640 1.81018875 10.83279634
Cu 7.22855469 0.01001829 3.61501455
Cu 7.20049715 1.78386701 5.41392986
Cu 9.05085560 0.00145043 5.42360535
Cu 9.02365396 1.80840488 3.59146174
Cu 7.23324655 0.01149022 7.22134211
Cu 7.24074235 1.79948529 9.03869064
Cu 9.03579480 0.00036162 9.05278610
Cu 9.04620811 1.79988167 7.20134503
Cu 7.23884220 3.62221190 0.00139446
Cu 7.22396181 5.43826234 1.78887883
Cu 9.02911958 3.59942056 1.81099999
Cu 9.03237168 5.44357499 10.84484540
Cu 7.22715476 3.62029235 3.60720609
Cu 7.21856271 5.42728833 5.41724352
Cu 9.04707203 3.61777446 5.42329331
Cu 9.03784134 5.42095399 3.61882745
Cu 7.22564117 3.59422981 7.23043640
Cu 7.22502011 5.40773610 9.04521751
Cu 9.03328064 3.59644415 9.03643161
Cu 9.03019073 5.40437207 7.23290604
Cu 7.21891335 7.23680476 10.83545231
Cu 7.23969755 9.04131983 1.80834106
Cu 9.02932257 7.23867332 1.81234961
Cu 9.03338032 9.04280674 10.83418350
Cu 7.21656970 7.22845397 3.61541565
Cu 7.23403893 9.03758501 5.43489356
Cu 9.02392842 7.23517610 5.42452563
Cu 9.05101445 9.03818583 3.61796386
Cu 7.24768208 7.23749554 7.23592336
Cu 7.22565868 9.03837987 9.02022538
Cu 9.02851701 7.23599708 9.01900685
Cu 9.03817590 9.03716620 7.23370961
108
Step=10000 Lattice="10.845 0 0  0 10.845 0  0 0 10.845" Properties=species:S:1:pos:R:3
Cu 10.81240842 10.83280093 0.04023128
Cu 0.00693369 1.83475114 1.82401702
Cu 1.78605251 0.01627454 1.79685525
Cu 1.79441359 1.80870528 10.79664174
Cu 0.03552081 10.82477556 3.64350558
Cu 0.00276178 1.85170959 5.39900190
Cu 1.79648023 0.00854241 5.35554913
Cu 1.83428812 1.85238491 3.64678961
Cu 0.02254042 10.83727295 7.26944317
Cu 0.03062260 1.81738088 9.03783045
Cu 1.79712082 10.80554252 9.07602804
Cu 1.73962674 1.79351325 7.23381233
Cu 0.02382207 3.66645640 0.03095287
Cu 10.83326849 5.44241057 1.76846440
Cu 1.85195353 3.61001783 1.78535574
Cu 1.78810711 5.41901313 10.83197915
Cu 0.06832153 3.59215285 3.61257236
Cu 10.84393622 5.42250476 5.42403736
Cu 1.79225472 3.59543088 5.39748240
Cu 1.76080311 5.42794633 3.64323216
Cu 10.82746622 3.59631840 7.22014661
Cu 10.82748186 5.37563926 9.07923685
Cu 1.81944655 3.59173865 9.04560158
Cu 1.79238330 5.41334441 7.23997082
Cu 0.02754151 7.27614020 0.05078704
Cu 10.83607642 9.02116509 1.80930676
Cu 1.81129809 7.20431351 1.78828398
Cu 1.83250234 9.08642215 10.83833000
Cu 10.82433047 7.21926974 3.58413517
Cu 10.83737806 9.04654463 5.42120213
Cu 1.84493574 7.23369340 5.43726948
Cu 1.80202509 9.07348307 3.57484515
Cu 10.83352395 7.19089031 7.25459876
Cu 0.02432175 9.01870284 9.08876013
Cu 1.79629627 7.18412880 9.02903735
Cu 1.81793890 9.02852005 7.29881387
Cu 3.64092232 0.04931144 0.03958172
Cu 3.56091023 1.79541969 1.72463313
Cu 5.40121160 0.03177034 1.78255678
Cu 5.40309291 1.81765550 0.02015454
Cu 3.60377577 10.83586603 3.63656013
Cu 3.62056955 1.79762927 5.43266201
Cu 5.42154991 0.00318177 5.48343533
Cu 5.40830012 1.78939399 3.65615202
Cu 3.58988767 0.05084365 7.22517078
Cu 3.61741764 1.82831054 9.07343627
Cu 5.45049905 10.83746550 9.02440238
Cu 5.43026213 1.81037385 7.21240052
Cu 3.62700350 3.64545830 0.00258199
Cu 3.66278166 5.43315744 1.80219346
Cu 5.42310232 3.59616237 1.77593744
Cu 5.43513949 5.39485127 10.83163110
Cu 3.61251702 3.62491885 3.62647044
Cu 3.61553687 5.36105908 5.41749788
Cu 5.39730710 3.61002864 5.45333888
Cu 5.44628845 5.42470506 3.62789866
Cu 3.56702103 3.61788488 7.24919585
Cu 3.59309361 5.43417192 9.02470010
Cu 5.45166589 3.64480135 9.02065317
Cu 5.46704786 5.41549536 7.29256644
Cu 3.60025054 7.22808204 0.00496835
Cu 3.59163567 8.98234551 1.78195867
Cu 5.45479991 7.21915561 1.79556658
Cu 5.46813351 9.05156665 0.02115663
Cu 3.63937018 7.19834466 3.61738659
Cu 3.61808393 9.03074028 5.38903610
Cu 5.43545935 7.17680901 5.39553608
Cu 5.39696999 9.02422381 3.63936169
Cu 3.66755592 7.28009536 7.25332996
Cu 3.63015667 8.96458125 9.07369114
Cu 5.50292645 7.24158900 9.04421382
Cu 5.44233245 9.05839679 7.23250345
Cu 7.21748654 0.00973678 10.80321500
Cu 7.16930456 1.84671410 1.79126912
Cu 9.05783124 0.04644764 1.84355365
Cu 9.02056284 1.81567137 10.80980179
Cu 7.22479997 0.02811960 3.61450717
Cu 7.14280515 1.73791638 5.39535436
Cu 9.07861001 0.00476191 5.42445143
Cu 8.99538970 1.81100242 3.54616941
Cu 7.24201739 0.03497115 7.20459464
Cu 7.26149824 1.78328465 9.04024409
Cu 9.03364587 0.00129254 9.08179491
Cu 9.06407290 1.78352788 7.14305399
Cu 7.25722208 3.63649482 0.00401973
Cu 7.21252101 5.46988364 1.75134155
Cu 9.01253267 3.56992037 1.81732783
Cu 9.02200440 5.48773252 10.84384973
Cu 7.22017938 3.63165754 3.59201997
Cu 7.19624557 5.43516786 5.40818778
Cu 9.06434281 3.62259791 5.42241428
Cu 9.03828784 5.41715193 3.62549015
Cu 7.21815316 3.55028967 7.22959273
Cu 7.21772491 5.37754685 9.06088649
Cu 9.02542948 3.55800911 9.03396146
Cu 9.01416666 5.36625864 7.23907675
Cu 7.19787294 7.25197061 10.81517298
Cu 7.25985044 9.05113262 1.81099426
Cu 9.01124010 7.25685716 1.82198167
Cu 9.02358558 9.05291022 10.81252232
Cu 7.19043678 7.22667250 3.61589360
Cu 7.24209729 9.03879214 5.45915139
Cu 8.99694341 7.24480144 5.42861371
Cu 9.07728172 9.04030731 3.62454048
Cu 7.28252314 7.25105539 7.24691611
Cu 7.21768980 9.04228809 8.98468785
Cu 9.01112728 7.24737201 8.98301811
Cu 9.04175585 9.03893592 7.24170182
108
Step=20000 Lattice="10.845 0 0  0 10.845 0  0 0 10.845" Properties=species:S:1:pos:R:3
Cu 10.78772142 10.82787125 0.07129035
Cu 0.01770567 1.85540537 1.83368323
Cu 1.76924708 0.03153019 1.78995569
Cu 1.77894302 1.80924843 10.76376028
Cu 0.05701113 10.81913168 3.65710676
Cu 0.00365551 1.87700785 5.37543657
Cu 1.78913390 0.01436872 5.31809081
Cu 1.86001268 1.87862819 3.66092499
Cu 0.03805649 10.82658518 7.29876912
Cu 0.04533334 1.82271802 9.04181444
Cu 1.79563054 10.78148033 9.10594816
Cu 1.69492390 1.78227750 7.23437351
Cu 0.03438332 3.69605920 0.05576416
Cu 10.82031710 5.45463457 1.74547897
Cu 1.88567443 3.61251337 1.76944267
Cu 1.77999357 5.41791422 10.82340479
Cu 0.10937846 3.58166458 3.60219252
Cu 10.84042980 5.42545786 5.42763542
Cu 1.78471045 3.58470874 5.38993451
Cu 1.73080676 5.43408905 3.65870993
Cu 10.81653473 3.58564576 7.21611897
Cu 10.80886491 5.34221425 9.10756624
Cu 1.82545869 3.57873952 9.05093644
Cu 1.77982305 5.40453713 7.24505899
Cu 0.04424862 7.31003667 0.08206447
Cu 10.82931075 9.01393246 1.81060111
Cu 1.81664614 7.18320546 1.77886847
Cu 1.85229475 9.11898496 10.83911857
Cu 10.81140998 7.21195122 3.56541307
Cu 10.83847249 9.04540315 5.42703499
Cu 1.87183345 7.23847910 5.45021638
Cu 1.79953988 9.08853710 3.54298851
Cu 10.82278502 7.16125123 7.27105495
Cu 0.03833713 9.00240590 9.12619301
Cu 1.78512409 7.14966343 9.02666127
Cu 1.82652153 9.02163832 7.34558663
Cu 3.65890738 0.07317837 0.05697316
Cu 3.52120658 1.79354347 1.67652844
Cu 5.38665562 0.05116714 1.77299279
Cu 5.39427197 1.83084133 0.02293542
Cu 3.59922196 10.83198305 3.64357487
Cu 3.62067957 1.79365318 5.44368272
Cu 5.41217038 10.84004264 5.52433688
Cu 5.38687877 1.77839213 3.67812840
Cu 3.56573613 0.08437738 7.22804257
Cu 3.62291203 1.84239103 9.09588663
Cu 5.46384962 10.83461122 9.01294263
Cu 5.42891026 1.81391681 7.21060871
Cu 3.63573552 3.67112410 10.84368542
Cu 3.69716933 5.44018373 1.79999827
Cu 5.41848380 3.58591231 1.75855637
Cu 5.44065366 5.37865375 10.81798463
Cu 3.61512399 3.63148741 3.62825714
Cu 3.61500011 5.32027709 5.42075725
Cu 5.38028148 3.60741519 5.47759163
Cu 5.46162863 5.41748304 3.63003289
Cu 3.53194915 3.61534455 7.26430280
Cu 3.58170453 5.44490152 9.01572230
Cu 5.46837361 3.65519227 9.01166102
Cu 5.49856518 5.41378117 7.33325096
Cu 3.59468727 7.21952982 0.00624616
Cu 3.57914107 8.94513560 1.76552489
Cu 5.47569027 7.21633093 1.78489809
Cu 5.49810898 9.06397472 0.03676649
Cu 3.65356168 7.17144840 3.61743355
Cu 3.61817319 9.02624348 5.37044640
Cu 5.44167634 7.14127835 5.38704274
Cu 5.38179276 9.01900707 3.65350127
Cu 3.71078954 7.31012445 7.26669215
Cu 3.64840655 8.91833010 9.10512824
Cu 5.55702481 7.24750882 9.04832156
Cu 5.45368026 9.07316656 7.23162201
Cu 7.20921931 0.01781635 10.78021666
Cu 7.12450049 1.86933522 1.77696913
Cu 9.06953068 0.07792616 1.86518931
Cu 9.01322435 1.82133072 10.79289772
Cu 7.21800206 0.03924864 3.61134692
Cu 7.09110781 1.69808576 5.37336483
Cu 9.10927745 0.00826588 5.41999184
Cu 8.96506790 1.81680335 3.50851593
Cu 7.25816374 0.05937584 7.19024147
Cu 7.27887158 1.76684081 9.03841496
Cu 9.03628027 0.00261337 9.10484775
Cu 9.08288140 1.76470362 7.08268525
Cu 7.27776581 3.64981751 0.00634020
Cu 7.20347277 5.50094070 1.71346377
Cu 8.99672683 3.54657724 1.82033297
Cu 9.01133249 5.53877020 10.84072398
Cu 7.20895012 3.64501346 3.57816602
Cu 7.17697458 5.43695367 5.40424950
Cu 9.07586421 3.62581931 5.41323942
Cu 9.03778206 5.41153935 3.62906067
Cu 7.21502735 3.49906195 7.22307408
Cu 7.22072032 5.34635290 9.07700216
Cu 9.01974831 3.51610986 9.02936944
Cu 8.99336163 5.32258987 7.24667922
Cu 7.18244659 7.27189275 10.79238561
Cu 7.28203055 9.06817541 1.81689541
Cu 8.98822056 7.27751749 1.83141336
Cu 9.00849816 9.06063789 10.79131491
Cu 7.16728135 7.22919491 3.61515168
Cu 7.24983630 9.04361127 5.48143931
Cu 8.97116615 7.25178292 5.43214704
Cu 9.10089796 9.04509164 3.63319244
Cu 7.31384579 7.25916125 7.25353243
Cu 7.21320026 9.05409983 8.94701107
Cu 8.99650325 7.25624495 8.95191374
Cu 9.05314376 9.04884583 7.25096338
108
Step=30000 Lattice="10.845 0 0  0 10.845 0  0 0 10.845" Properties=species:S:1:pos:R:3
Cu 10.76108396 10.82834837 0.10524908
Cu 0.03731004 1.87820422 1.84004407
Cu 1.75026657 0.05238165 1.78386811
Cu 1.75479616 1.80870539 10.73557854
Cu 0.07015348 10.82694194 3.65781967
Cu 0.00412193 1.89248197 5.33952993
Cu 1.78473640 0.01995509 5.29802540
Cu 1.89706600 1.89450029 3.66076188
Cu 0.05215940 10.80583990 7.33117477
Cu 0.04663957 1.82481768 9.05114851
Cu 1.80252833 10.76636866 9.13762298
Cu 1.65607029 1.77005870 7.23043874
Cu 0.03476640 3.71157185 0.08569026
Cu 10.79983580 5.46627774 1.73090367
Cu 1.92143109 3.62640781 1.75344463
Cu 1.78082946 5.41924727 10.81619294
Cu 0.13807284 3.58190643 3.57748436
Cu 10.83194226 5.43242818 5.43532815
Cu 1.78269800 3.58076248 5.39951501
Cu 1.70682173 5.44436426 3.66814380
Cu 10.80737674 3.57893499 7.21625407
Cu 10.78048160 5.30869688 9.13165663
Cu 1.82636235 3.57278891 9.05618335
Cu 1.76347218 5.39158095 7.24694571
Cu 0.05705259 7.34374102 0.10614719
Cu 10.82130445 9.01526696 1.81388983
Cu 1.82630712 7.15662205 1.77699610
Cu 1.87496513 9.14569294 0.00691803
Cu 10.80041960 7.20529094 3.55115521
Cu 0.00560985 9.03213646 5.44300432
Cu 1.89991690 7.24528429 5.46807804
Cu 1.80004495 9.08717486 3.50600243
Cu 10.80774910 7.12812485 7.28624961
Cu 0.04771041 8.98191727 9.16490737
Cu 1.76826996 7.11335274 9.02950451
Cu 1.83807024 9.01188962 7.39143897
Cu 3.67515103 0.07665073 0.05442507
Cu 3.48047469 1.80453156 1.64507166
Cu 5.37336004 0.06677460 1.77673798
Cu 5.39247241 1.85304945 0.00697775
Cu 3.59966921 10.83183176 3.63791245
Cu 3.61469320 1.79469867 5.46056563
Cu 5.38662512 10.81561812 5.56114814
Cu 5.34684852 1.77024487 3.68760431
Cu 3.53098242 0.11437270 7.24138133
Cu 3.63401391 1.85542019 9.11393302
Cu 5.46675960 10.83614310 8.99787397
Cu 5.41579800 1.81796738 7.22546980
Cu 3.64416439 3.70270524 10.82983678
Cu 3.73307455 5.44637484 1.79958345
Cu 5.40442530 3.58321383 1.74859160
Cu 5.44190112 5.36890749 10.79733622
Cu 3.62468388 3.63822217 3.62049107
Cu 3.61186392 5.28511033 5.43410515
Cu 5.36524938 3.60533950 5.50577668
Cu 5.47372942 5.39719708 3.62066554
Cu 3.49601785 3.60492319 7.28162425
Cu 3.57756862 5.45847609 9.00580298
Cu 5.47829027 3.64669503 9.00761478
Cu 5.53056154 5.41744915 7.36681200
Cu 3.59641582 7.19727331 0.00499702
Cu 3.57443148 8.91089061 1.75269609
Cu 5.49224927 7.22288677 1.77077670
Cu 5.52402190 9.08107127 0.05337923
Cu 3.66386420 7.13751703 3.61576799
Cu 3.61403177 9.02208160 5.35979155
Cu 5.44126727 7.11033426 5.39483939
Cu 5.37138839 9.01909249 3.66266843
Cu 3.76301517 7.33142761 7.27523876
Cu 3.67833500 8.88028394 9.14548012
Cu 5.60395714 7.24965689 9.04753714
Cu 5.46097547 9.08721339 7.22767064
Cu 7.20174675 0.02825658 10.76816410
Cu 7.07954714 1.88242196 1.76013183
Cu 9.07723953 0.10513408 1.87987027
Cu 9.01321570 1.82581663 10.79106775
Cu 7.20574229 0.03599562 3.60225829
Cu 7.05624981 1.67513737 5.34920650
Cu 9.14231932 0.00920374 5.40419293
Cu 8.93265247 1.82944933 3.49112453
Cu 7.28582337 0.08280166 7.18152224
Cu 7.28739630 1.75128468 9.03007165
Cu 9.04846308 0.00478775 9.11427844
Cu 9.10194708 1.74550504 7.02579905
Cu 7.30031860 3.65952160 0.00860527
Cu 7.20005471 5.52687955 1.67885560
Cu 8.98372500 3.53767924 1.81559514
Cu 9.00172579 5.59892849 10.83437053
Cu 7.19090919 3.65953526 3.56727427
Cu 7.16687163 5.42622850 5.41010505
Cu 9.07672896 3.62670203 5.38914082
Cu 9.03500777 5.40394514 3.62658998
Cu 7.22097919 3.43955081 7.20668472
Cu 7.24427518 5.31740191 9.09200188
Cu 9.01893012 3.47246609 9.01942071
Cu 8.96538270 5.27290097 7.25647584
Cu 7.18229978 7.29872278 10.77039432
Cu 7.30517239 9.09779085 1.82797336
Cu 8.95939593 7.30068631 1.83992610
Cu 8.98471449 9.06246562 10.77342623
Cu 7.15183743 7.23910079 3.61278582
Cu 7.25638213 9.05513113 5.49823510
Cu 8.95090366 7.25305275 5.43323033
Cu 9.11790699 9.05468902 3.64511565
Cu 7.33336512 7.25639351 7.24908249
Cu 7.21725441 9.08058938 8.90987774
Cu 8.98965876 7.25973064 8.93496851
Cu 9.07808310 9.07240127 7.26069641
