108
Step=0 Lattice="10.845 0 0  0 10.845 0  0 0 10.845" Properties=species:S:1:pos:R:3
Cu 10.83446573 10.84064166 0.01295573
Cu 0.00172418 1.81633568 1.81310477
Cu 1.80059806 0.00498881 1.80394305
Cu 1.80377399 1.80788803 10.82904958
Cu 0.01187604 10.83757333 3.62488819
Cu 0.00103702 1.82254354 5.41536576
Cu 1.80392931 0.00284957 5.39965002
Cu 1.81572195 1.82266019 3.62616778
Cu 0.00740156 10.84285156 7.24286787
Cu 0.01061682 1.81088675 9.03727962
Cu 1.80351380 10.83177958 9.04983536
Cu 1.78490586 1.80306113 7.23138463
Cu 0.00840261 3.63240697 0.00992886
Cu 10.84158569 5.42931061 1.79429025
Cu 1.82185994 3.61283803 1.80026638
Cu 1.80064324 5.42125767 10.84066993
Cu 0.02307195 3.60704558 3.61494798
Cu 10.84489669 5.42220621 5.42279122
Cu 1.80223724 3.60839039 5.41344326
Cu 1.79190321 5.42411340 3.62473913
Cu 10.83909031 3.60865492 7.22648790
Cu 10.83983318 5.40713155 9.05122229
Cu 1.81162585 3.60709882 9.04022661
Cu 1.80264715 5.41967955 7.23343302
Cu 0.00936352 7.24499740 0.01712982
Cu 10.84209472 9.03179177 1.80818349
Cu 1.80850356 7.22180433 1.80085504
Cu 1.81551966 9.05370597 10.84241660
Cu 10.83802201 7.22645667 3.60453274
Cu 10.84191336 9.04114627 5.42144337
Cu 1.81980881 7.23096099 5.42716108
Cu 1.80562042 9.05026971 3.60211358
Cu 10.84148457 7.21730927 7.23817689
Cu 0.00831501 9.03157234 9.05423119
Cu 1.80408104 7.21514790 9.03436276
Cu 1.81084894 9.03450000 7.25289808
Cu 3.62345505 0.01705525 0.01382854
Cu 3.59733915 1.80305244 1.77932405
Cu 5.41550664 0.01077342 1.79861586
Cu 5.41566704 1.81028825 0.00764860
Cu 3.61101917 10.84177206 3.62288194
Cu 3.61719734 1.80398588 5.42547116
Cu 5.42285162 0.00190443 5.44271333
Cu 5.41887193 1.80136862 3.62913700
Cu 3.60732519 0.01698653 7.22780674
Cu 3.61545420 1.81440038 9.04960657
Cu 5.43230354 10.84231434 9.03339943
Cu 5.42564203 1.80827234 7.22324218
Cu 3.61888782 3.62462558 0.00134768
Cu 3.63069609 5.42606584 1.80560356
Cu 5.42311837 3.60863808 1.79666551
Cu 5.42699190 5.41314259 10.84098090
Cu 3.61378323 3.61832503 3.61936284
Cu 3.61520650 5.40208675 5.42017328
Cu 5.41418132 3.61325273 5.43240896
Cu 5.43040370 5.42403064 3.61982775
Cu 3.59935532 3.61633980 7.23614364
Cu 3.60744345 5.42606711 9.03327826
Cu 5.43238510 3.62566389 9.03173204
Cu 5.43715996 5.41994565 7.25082946
Cu 3.60967302 7.22995679 0.00186399
Cu 3.60698226 9.01919557 1.79899470
Cu 5.43322797 7.22605104 1.80380234
Cu 5.43769433 9.04194586 0.00690452
Cu 3.62332473 7.22000759 3.61595634
Cu 3.61617122 9.03524539 5.41103360
Cu 5.42691417 7.21237931 5.41268749
Cu 5.41386191 9.03270189 3.62329518
Cu 3.63171747 7.24698459 7.23794934
Cu 3.61926507 9.01298286 9.04886622
Cu 5.44910367 7.23400635 9.03962142
Cu 5.42927823 9.04435837 7.23107059
Cu 7.22581879 0.00309910 10.83068741
Cu 7.21029756 1.82080229 1.80247177
Cu 9.04445957 0.01531572 1.81967923
Cu 9.03151640 1.81018875 10.83279634
Cu 7.22855469 0.01001829 3.61501455
Cu 7.20049715 1.78386701 5.41392986
Cu 9.05085560 0.00145043 5.42360535
Cu 9.02365396 1.80840488 3.59146174
Cu 7.23324655 0.01149022 7.22134211
Cu 7.24074235 1.79948529 9.03869064
Cu 9.03579480 0.00036162 9.05278610
Cu 9.04620811 1.79988167 7.20134503
Cu 7.23884220 3.62221190 0.00139446
Cu 7.22396181 5.43826234 1.78887883
Cu 9.02911958 3.59942056 1.81099999
Cu 9.03237168 5.44357499 10.84484540
Cu 7.22715476 3.62029235 3.60720609
Cu 7.21856271 5.42728833 5.41724352
Cu 9.04707203 3.61777446 5.42329331
Cu 9.03784134 5.42095399 3.61882745
Cu 7.22564117 3.59422981 7.23043640
Cu 7.22502011 5.40773610 9.04521751
Cu 9.03328064 3.59644415 9.03643161
Cu 9.03019073 5.40437207 7.23290604
Cu 7.21891335 7.23680476 10.83545231
Cu 7.23969755 9.04131983 1.80834106
Cu 9.02932257 7.23867332 1.81234961
Cu 9.03338032 9.04280674 10.83418350
Cu 7.21656970 7.22845397 3.61541565
Cu 7.23403893 9.03758501 5.43489356
Cu 9.02392842 7.23517610 5.42452563
Cu 9.05101445 9.03818583 3.61796386
Cu 7.24768208 7.23749554 7.23592336
Cu 7.22565868 9.03837987 9.02022538
Cu 9.02851701 7.23599708 9.01900685
Cu 9.03817590 9.03716620 7.23370961
108
Step=100 Lattice="10.845 0 0  0 10.845 0  0 0 10.845" Properties=species:S:1:pos:R:3
Cu 10.83425315 10.84055588 0.01321733
Cu 0.00176180 1.81651368 1.81321649
Cu 1.80045875 0.00509090 1.80387178
Cu 1.80369633 1.80789607 10.82872953
Cu 0.01211393 10.83742797 3.62508412
Cu 0.00105720 1.82284315 5.41521974
Cu 1.80385706 0.00290660 5.39919540
Cu 1.81588996 1.82296286 3.62638840
Cu 0.00755039 10.84280684 7.24312667
Cu 0.01082750 1.81095403 9.03727664
Cu 1.80343683 10.83151518 9.05008496
Cu 1.78445374 1.80297115 7.23141206
Cu 0.00856842 3.63275434 0.01012947
Cu 10.84151469 5.42944576 1.79402676
Cu 1.82214967 3.61279728 1.80012073
Cu 1.80050786 5.42123313 10.84058319
Cu 0.02353219 3.60688781 3.61494335
Cu 10.84489327 5.42220188 5.42279808
Cu 1.80213273 3.60825812 5.41326529
Cu 1.79159123 5.42414655 3.62493219
Cu 10.83897238 3.60852834 7.22641878
Cu 10.83972623 5.40682278 9.05149816
Cu 1.81170768 3.60694128 9.04028083
Cu 1.80254943 5.41962200 7.23350141
Cu 0.00954953 7.24529950 0.01747149
Cu 10.84203631 9.03167878 1.80819631
Cu 1.80852503 7.22163848 1.80072299
Cu 1.81568170 9.05403075 10.84236644
Cu 10.83788290 7.22638545 3.60432437
Cu 10.84185426 9.04121628 5.42142537
Cu 1.82005574 7.23098171 5.42725557
Cu 1.80558289 9.05052143 3.60185326
Cu 10.84141247 7.21705363 7.23834069
Cu 0.00848007 9.03145231 9.05456775
Cu 1.80401129 7.21484844 9.03430168
Cu 1.81091655 9.03444045 7.25335602
Cu 3.62362559 0.01739387 0.01410242
Cu 3.59698411 1.80296523 1.77876314
Cu 5.41536600 0.01098788 1.79844068
Cu 5.41553210 1.81034696 0.00779701
Cu 3.61094056 10.84170827 3.62303584
Cu 3.61723942 1.80391670 5.42553272
Cu 5.42285564 0.00193878 5.44311828
Cu 5.41879361 1.80124655 3.62941787
Cu 3.60716806 0.01732597 7.22776615
Cu 3.61546506 1.81453863 9.04984805
Cu 5.43249728 10.84226145 9.03331590
Cu 5.42570221 1.80828866 7.22311155
Cu 3.61896643 3.62482078 0.00137227
Cu 3.63101114 5.42613693 1.80556611
Cu 5.42312865 3.60851087 1.79645024
Cu 5.42708031 5.41295588 10.84089835
Cu 3.61376084 3.61839145 3.61944746
Cu 3.61521067 5.40167799 5.42013028
Cu 5.41401428 3.61321831 5.43260917
Cu 5.43056215 5.42405723 3.61992195
Cu 3.59904050 3.61636489 7.23626806
Cu 3.60729348 5.42614019 9.03319340
Cu 5.43258228 3.62587403 9.03161722
Cu 5.43745419 5.41989540 7.25124649
Cu 3.60956869 7.22995305 0.00190026
Cu 3.60682292 9.01882901 1.79882428
Cu 5.43344310 7.22597358 1.80372673
Cu 5.43799850 9.04203574 0.00704330
Cu 3.62349020 7.21980481 3.61597462
Cu 3.61619399 9.03520025 5.41080568
Cu 5.42700253 7.21202616 5.41249506
Cu 5.41368956 9.03260786 3.62346025
Cu 3.63205592 7.24732286 7.23810765
Cu 3.61935457 9.01249373 9.04909712
Cu 5.44963709 7.23408586 9.03966482
Cu 5.42941289 9.04449616 7.23109102
Cu 7.22573523 0.00316180 10.83040287
Cu 7.20990058 1.82106748 1.80236930
Cu 9.04459780 0.01562303 1.81992210
Cu 9.03139830 1.81024250 10.83255418
Cu 7.22852449 0.01021559 3.61501421
Cu 7.19990899 1.78339617 5.41375580
Cu 9.05112464 0.00148049 5.42362545
Cu 9.02337618 1.80842413 3.59099358
Cu 7.23331529 0.01172115 7.22116969
Cu 7.24095634 1.79932451 9.03871337
Cu 9.03576255 0.00036942 9.05308948
Cu 9.04638330 1.79972713 7.20077018
Cu 7.23902022 3.62235614 0.00142210
Cu 7.22384210 5.43857798 1.78850576
Cu 9.02895219 3.59911157 1.81106933
Cu 9.03226900 5.44399966 10.84484106
Cu 7.22709576 3.62039976 3.60705076
Cu 7.21833461 5.42738133 5.41714069
Cu 9.04726026 3.61782849 5.42330510
Cu 9.03784781 5.42092166 3.61890223
Cu 7.22555611 3.59381031 7.23044237
Cu 7.22492442 5.40743936 9.04537242
Cu 9.03319721 3.59607061 9.03641000
Cu 9.03004234 5.40400627 7.23296464
Cu 7.21869296 7.23694358 10.83525913
Cu 7.23989294 9.04139981 1.80835937
Cu 9.02915586 7.23884817 1.81244643
Cu 9.03329542 9.04291219 10.83396692
Cu 7.21630218 7.22842523 3.61542343
Cu 7.23411982 9.03758839 5.43514067
Cu 9.02365704 7.23527852 5.42456647
Cu 9.05128356 9.03820073 3.61802422
Cu 7.24803533 7.23764344 7.23604094
Cu 7.22557260 9.03840079 9.01987792
Cu 9.02833805 7.23611627 9.01863828
Cu 9.03819288 9.03716360 7.23378488
108
Step=200 Lattice="10.845 0 0  0 10.845 0  0 0 10.845" Properties=species:S:1:pos:R:3
Cu 10.83404047 10.84047019 0.01347906
Cu 0.00179961 1.81669176 1.81332818
Cu 1.80031937 0.00519311 1.80380051
Cu 1.80361848 1.80790412 10.82840943
Cu 0.01235182 10.83728282 3.62527995
Cu 0.00107733 1.82314268 5.41507352
Cu 1.80378476 0.00296363 5.39874094
Cu 1.81605818 1.82326548 3.62660885
Cu 0.00769926 10.84276200 7.24338554
Cu 0.01103806 1.81102129 9.03727375
Cu 1.80336001 10.83125079 9.05033472
Cu 1.78400162 1.80288111 7.23143947
Cu 0.00873410 3.63310164 0.01033018
Cu 10.84144353 5.42958084 1.79376332
Cu 1.82243954 3.61275669 1.79997503
Cu 1.80037259 5.42120860 10.84049645
Cu 0.02399234 3.60673013 3.61493850
Cu 10.84488977 5.42219764 5.42280501
Cu 1.80202826 3.60812587 5.41308752
Cu 1.79127927 5.42417976 3.62512515
Cu 10.83885447 3.60840178 7.22634973
Cu 10.83961908 5.40651393 9.05177410
Cu 1.81178946 3.60678378 9.04033503
Cu 1.80245167 5.41956439 7.23356977
Cu 0.00973547 7.24560171 0.01781309
Cu 10.84197787 9.03156587 1.80820908
Cu 1.80854659 7.22147252 1.80059099
Cu 1.81584383 9.05435556 10.84231637
Cu 10.83774382 7.22631421 3.60411605
Cu 10.84179532 9.04128610 5.42140756
Cu 1.82030270 7.23100252 5.42735014
Cu 1.80554536 9.05077291 3.60159279
Cu 10.84134027 7.21679789 7.23850450
Cu 0.00864507 9.03133219 9.05490441
Cu 1.80394144 7.21454885 9.03424070
Cu 1.81098420 9.03438091 7.25381395
Cu 3.62379620 0.01773233 0.01437611
Cu 3.59662896 1.80287812 1.77820240
Cu 5.41522532 0.01120228 1.79826567
Cu 5.41539725 1.81040586 0.00794514
Cu 3.61086202 10.84164452 3.62318954
Cu 3.61728140 1.80384760 5.42559440
Cu 5.42285948 0.00197289 5.44352326
Cu 5.41871497 1.80112451 3.62969861
Cu 3.60701073 0.01766539 7.22772574
Cu 3.61547603 1.81467690 9.05008948
Cu 5.43269087 10.84220860 9.03323229
Cu 5.42576223 1.80830503 7.22298118
Cu 3.61904507 3.62501614 0.00139671
Cu 3.63132625 5.42620801 1.80552869
Cu 5.42313881 3.60838366 1.79623506
Cu 5.42716863 5.41276921 10.84081568
Cu 3.61373856 3.61845786 3.61953191
Cu 3.61521484 5.40126921 5.42008750
Cu 5.41384721 3.61318393 5.43280949
Cu 5.43072061 5.42408358 3.62001599
Cu 3.59872558 3.61638987 7.23639255
Cu 3.60714359 5.42621337 9.03310852
Cu 5.43277941 3.62608397 9.03150244
Cu 5.43774847 5.41984520 7.25166353
Cu 3.60946449 7.22994915 0.00193646
Cu 3.60666364 9.01846242 1.79865386
Cu 5.43365825 7.22589621 1.80365104
Cu 5.43830267 9.04212568 0.00718211
Cu 3.62365560 7.21960187 3.61599286
Cu 3.61621672 9.03515510 5.41057786
Cu 5.42709088 7.21167297 5.41230288
Cu 5.41351726 9.03251394 3.62362528
Cu 3.63239460 7.24766104 7.23826591
Cu 3.61944430 9.01200467 9.04932823
Cu 5.45017058 7.23416533 9.03970826
Cu 5.42954750 9.04463398 7.23111137
Cu 7.22565167 0.00322454 10.83011844
Cu 7.20950344 1.82133262 1.80226670
Cu 9.04473597 0.01593040 1.82016493
Cu 9.03128030 1.81029626 10.83231216
Cu 7.22849421 0.01041270 3.61501383
Cu 7.19932095 1.78292546 5.41358159
Cu 9.05139379 0.00151059 5.42364542
Cu 9.02309835 1.80844346 3.59052559
Cu 7.23338425 0.01195213 7.22099733
Cu 7.24117027 1.79916371 9.03873603
Cu 9.03573041 0.00037725 9.05339270
Cu 9.04655855 1.79957247 7.20019522
Cu 7.23919830 3.62250037 0.00144972
Cu 7.22372246 5.43889363 1.78813266
Cu 9.02878482 3.59880274 1.81113862
Cu 9.03216630 5.44442452 10.84483665
Cu 7.22703664 3.62050724 3.60689548
Cu 7.21810655 5.42747417 5.41703800
Cu 9.04744829 3.61788245 5.42331664
Cu 9.03785425 5.42088925 3.61897690
Cu 7.22547116 3.59339057 7.23044816
Cu 7.22482898 5.40714255 9.04552735
Cu 9.03311385 3.59569694 9.03638838
Cu 9.02989383 5.40364029 7.23302327
Cu 7.21847267 7.23708255 10.83506582
Cu 7.24008841 9.04148000 1.80837778
Cu 9.02898897 7.23902310 1.81254324
Cu 9.03321038 9.04301760 10.83375033
Cu 7.21603472 7.22839663 3.61543118
Cu 7.23420071 9.03759186 5.43538772
Cu 9.02338567 7.23538086 5.42460733
Cu 9.05155258 9.03821570 3.61808465
Cu 7.24838853 7.23779120 7.23615846
Cu 7.22548657 9.03842191 9.01953036
Cu 9.02815914 7.23623539 9.01826979
Cu 9.03821008 9.03716124 7.23386022
108
Step=300 Lattice="10.845 0 0  0 10.845 0  0 0 10.845" Properties=species:S:1:pos:R:3
Cu 10.83382769 10.84038459 0.01374093
Cu 0.00183759 1.81686992 1.81343984
Cu 1.80017992 0.00529546 1.80372924
Cu 1.80354043 1.80791218 10.82808927
Cu 0.01258972 10.83713787 3.62547566
Cu 0.00109743 1.82344212 5.41492710
Cu 1.80371242 0.00302065 5.39828663
Cu 1.81622660 1.82356804 3.62682913
Cu 0.00784816 10.84271705 7.24364450
Cu 0.01124851 1.81108852 9.03727096
Cu 1.80328337 10.83098641 9.05058465
Cu 1.78354949 1.80279099 7.23146685
Cu 0.00889963 3.63344889 0.01053102
Cu 10.84137221 5.42971585 1.79349993
Cu 1.82272955 3.61271624 1.79982928
Cu 1.80023744 5.42118410 10.84040970
Cu 0.02445241 3.60657255 3.61493343
Cu 10.84488620 5.42219349 5.42281200
Cu 1.80192385 3.60799362 5.41290996
Cu 1.79096731 5.42421302 3.62531799
Cu 10.83873657 3.60827525 7.22628075
Cu 10.83951172 5.40620500 9.05205011
Cu 1.81187121 3.60662632 9.04038922
Cu 1.80235386 5.41950670 7.23363810
Cu 0.00992134 7.24590405 0.01815462
Cu 10.84191941 9.03145303 1.80822182
Cu 1.80856822 7.22130645 1.80045907
Cu 1.81600606 9.05468041 10.84226641
Cu 10.83760477 7.22624296 3.60390779
Cu 10.84173655 9.04135574 5.42138993
Cu 1.82054972 7.23102343 5.42744478
Cu 1.80550784 9.05102416 3.60133217
Cu 10.84126797 7.21654205 7.23866832
Cu 0.00880999 9.03121197 9.05524118
Cu 1.80387151 7.21424912 9.03417981
Cu 1.81105188 9.03432139 7.25427188
Cu 3.62396689 0.01807062 0.01464964
Cu 3.59627371 1.80279112 1.77764183
Cu 5.41508461 0.01141662 1.79809082
Cu 5.41526252 1.81046493 0.00809299
Cu 3.61078355 10.84158084 3.62334301
Cu 3.61732328 1.80377856 5.42565621
Cu 5.42286313 0.00200676 5.44392828
Cu 5.41863598 1.80100250 3.62997923
Cu 3.60685318 0.01800478 7.22768551
Cu 3.61548711 1.81481517 9.05033087
Cu 5.43288432 10.84215581 9.03314860
Cu 5.42582208 1.80832146 7.22285108
Cu 3.61912376 3.62521166 0.00142102
Cu 3.63164142 5.42627908 1.80549132
Cu 5.42314885 3.60825646 1.79601998
Cu 5.42725686 5.41258258 10.84073288
Cu 3.61371641 3.61852427 3.61961620
Cu 3.61521900 5.40086040 5.42004492
Cu 5.41368012 3.61314957 5.43300991
Cu 5.43087909 5.42410970 3.62010989
Cu 3.59841055 3.61641474 7.23651713
Cu 3.60699376 5.42628666 9.03302363
Cu 5.43297651 3.62629370 9.03138771
Cu 5.43804280 5.41979506 7.25208059
Cu 3.60936042 7.22994507 0.00197260
Cu 3.60650443 9.01809582 1.79848344
Cu 5.43387343 7.22581894 1.80357526
Cu 5.43860685 9.04221569 0.00732097
Cu 3.62382094 7.21939875 3.61601105
Cu 3.61623941 9.03510996 5.41035012
Cu 5.42717922 7.21131974 5.41211093
Cu 5.41334498 9.03242015 3.62379024
Cu 3.63273353 7.24799912 7.23842411
Cu 3.61953428 9.01151570 9.04955954
Cu 5.45070413 7.23424476 9.03975176
Cu 5.42968206 9.04477183 7.23113166
Cu 7.22556812 0.00328733 10.82983413
Cu 7.20910613 1.82159769 1.80216398
Cu 9.04487407 0.01623782 1.82040771
Cu 9.03116241 1.81035003 10.83207026
Cu 7.22846384 0.01060961 3.61501341
Cu 7.19873304 1.78245487 5.41340723
Cu 9.05166305 0.00154075 5.42366527
Cu 9.02282048 1.80846285 3.59005776
Cu 7.23345344 0.01218316 7.22082501
Cu 7.24138413 1.79900288 9.03875861
Cu 9.03569839 0.00038511 9.05369577
Cu 9.04673385 1.79941768 7.19962018
Cu 7.23937645 3.62264460 0.00147732
Cu 7.22360288 5.43920930 1.78775953
Cu 9.02861746 3.59849409 1.81120785
Cu 9.03206360 5.44484957 10.84483217
Cu 7.22697739 3.62061481 3.60674023
Cu 7.21787853 5.42756683 5.41693546
Cu 9.04763612 3.61793631 5.42332794
Cu 9.03786067 5.42085677 3.61905147
Cu 7.22538634 3.59297059 7.23045378
Cu 7.22473378 5.40684566 9.04568231
Cu 9.03303054 3.59532313 9.03636674
Cu 9.02974518 5.40327413 7.23308193
Cu 7.21825248 7.23722169 10.83487238
Cu 7.24028395 9.04156041 1.80839629
Cu 9.02882190 7.23919811 1.81264004
Cu 9.03312519 9.04312296 10.83353374
Cu 7.21576734 7.22836816 3.61543889
Cu 7.23428161 9.03759544 5.43563471
Cu 9.02311432 7.23548313 5.42464819
Cu 9.05182152 9.03823074 3.61814514
Cu 7.24874170 7.23793883 7.23627591
Cu 7.22540060 9.03844324 9.01918269
Cu 9.02798029 7.23635446 9.01790140
Cu 9.03822749 9.03715912 7.23393562
108
Step=400 Lattice="10.845 0 0  0 10.845 0  0 0 10.845" Properties=species:S:1:pos:R:3
Cu 10.83361480 10.84029908 0.01400294
Cu 0.00187576 1.81704815 1.81355148
Cu 1.80004039 0.00539794 1.80365798
Cu 1.80346219 1.80792024 10.82776906
Cu 0.01282762 10.83699314 3.62567127
Cu 0.00111748 1.82374146 5.41478046
Cu 1.80364003 0.00307767 5.39783248
Cu 1.81639524 1.82387056 3.62704924
Cu 0.00799711 10.84267198 7.24390353
Cu 0.01145885 1.81115572 9.03726826
Cu 1.80320689 10.83072205 9.05083473
Cu 1.78309735 1.80270081 7.23149420
Cu 0.00906502 3.63379606 0.01073197
Cu 10.84130074 5.42985080 1.79323661
Cu 1.82301971 3.61267595 1.79968348
Cu 1.80010240 5.42115961 10.84032295
Cu 0.02491239 3.60641506 3.61492814
Cu 10.84488255 5.42218943 5.42281906
Cu 1.80181949 3.60786139 5.41273260
Cu 1.79065536 5.42424634 3.62551073
Cu 10.83861870 3.60814876 7.22621184
Cu 10.83940415 5.40589600 9.05232619
Cu 1.81195291 3.60646890 9.04044339
Cu 1.80225601 5.41944895 7.23370640
Cu 0.01010715 7.24620651 0.01849609
Cu 10.84186093 9.03134026 1.80823452
Cu 1.80858993 7.22114027 1.80032720
Cu 1.81616839 9.05500529 10.84221654
Cu 10.83746575 7.22617171 3.60369960
Cu 10.84167794 9.04142518 5.42137250
Cu 1.82079677 7.23104442 5.42753950
Cu 1.80547034 9.05127517 3.60107139
Cu 10.84119558 7.21628611 7.23883214
Cu 0.00897485 9.03109165 9.05557806
Cu 1.80380148 7.21394925 9.03411903
Cu 1.81111961 9.03426188 7.25472981
Cu 3.62413764 0.01840874 0.01492298
Cu 3.59591835 1.80270424 1.77708144
Cu 5.41494385 0.01163089 1.79791615
Cu 5.41512791 1.81052419 0.00824055
Cu 3.61070515 10.84151720 3.62349626
Cu 3.61736504 1.80370959 5.42571815
Cu 5.42286660 0.00204038 5.44433332
Cu 5.41855665 1.80088053 3.63025973
Cu 3.60669542 0.01834415 7.22764547
Cu 3.61549829 1.81495345 9.05057221
Cu 5.43307763 10.84210307 9.03306483
Cu 5.42588176 1.80833795 7.22272126
Cu 3.61920248 3.62540734 0.00144517
Cu 3.63195665 5.42635014 1.80545398
Cu 5.42315877 3.60812928 1.79580499
Cu 5.42734501 5.41239599 10.84064994
Cu 3.61369437 3.61859067 3.61970032
Cu 3.61522317 5.40045158 5.42000255
Cu 5.41351300 3.61311525 5.43321046
Cu 5.43103758 5.42413556 3.62020362
Cu 3.59809542 3.61643949 7.23664179
Cu 3.60684402 5.42636004 9.03293873
Cu 5.43317356 3.62650322 9.03127302
Cu 5.43833718 5.41974499 7.25249766
Cu 3.60925649 7.22994081 0.00200867
Cu 3.60634529 9.01772920 1.79831300
Cu 5.43408862 7.22574177 1.80349939
Cu 5.43891103 9.04230576 0.00745987
Cu 3.62398621 7.21919547 3.61602919
Cu 3.61626206 9.03506482 5.41012249
Cu 5.42726754 7.21096647 5.41191924
Cu 5.41317275 9.03232648 3.62395515
Cu 3.63307270 7.24833711 7.23858226
Cu 3.61962450 9.01102680 9.04979107
Cu 5.45123775 7.23432415 9.03979531
Cu 5.42981656 9.04490971 7.23115187
Cu 7.22548458 0.00335016 10.82954994
Cu 7.20870866 1.82186269 1.80206115
Cu 9.04501212 0.01654530 1.82065043
Cu 9.03104462 1.81040380 10.83182850
Cu 7.22843338 0.01080633 3.61501294
Cu 7.19814527 1.78198441 5.41323271
Cu 9.05193241 0.00157096 5.42368497
Cu 9.02254255 1.80848233 3.58959012
Cu 7.23352286 0.01241425 7.22065275
Cu 7.24159793 1.79884204 9.03878111
Cu 9.03566650 0.00039300 9.05399868
Cu 9.04690919 1.79926277 7.19904503
Cu 7.23955467 3.62278881 0.00150490
Cu 7.22348337 5.43952497 1.78738638
Cu 9.02845013 3.59818560 1.81127703
Cu 9.03196089 5.44527480 10.84482761
Cu 7.22691801 3.62072246 3.60658503
Cu 7.21765057 5.42765932 5.41683306
Cu 9.04782375 3.61799009 5.42333898
Cu 9.03786707 5.42082421 3.61912593
Cu 7.22530164 3.59255037 7.23045923
Cu 7.22463885 5.40654870 9.04583730
Cu 9.03294730 3.59494918 9.03634508
Cu 9.02959639 5.40290778 7.23314062
Cu 7.21803239 7.23736099 10.83467882
Cu 7.24047957 9.04164104 1.80841489
Cu 9.02865465 7.23937321 1.81273684
Cu 9.03303983 9.04322827 10.83331715
Cu 7.21550003 7.22833983 3.61544656
Cu 7.23436250 9.03759912 5.43588165
Cu 9.02284299 7.23558533 5.42468907
Cu 9.05209038 9.03824586 3.61820570
Cu 7.24909482 7.23808631 7.23639328
Cu 7.22531469 9.03846478 9.01883491
Cu 9.02780149 7.23647347 9.01753311
Cu 9.03824513 9.03715725 7.23401108
108
Step=500 Lattice="10.845 0 0  0 10.845 0  0 0 10.845" Properties=species:S:1:pos:R:3
Cu 10.83340180 10.84021366 0.01426509
Cu 0.00191411 1.81722645 1.81366308
Cu 1.79990079 0.00550057 1.80358671
Cu 1.80338375 1.80792832 10.82744879
Cu 0.01306553 10.83684861 3.62586675
Cu 0.00113750 1.82404072 5.41463361
Cu 1.80356761 0.00313469 5.39737850
Cu 1.81656409 1.82417303 3.62726918
Cu 0.00814610 10.84262678 7.24416265
Cu 0.01166906 1.81122288 9.03726566
Cu 1.80313058 10.83045770 9.05108499
Cu 1.78264520 1.80261054 7.23152153
Cu 0.00923026 3.63414317 0.01093304
Cu 10.84122911 5.42998569 1.79297334
Cu 1.82331001 3.61263582 1.79953763
Cu 1.79996749 5.42113515 10.84023619
Cu 0.02537228 3.60625767 3.61492261
Cu 10.84487882 5.42218547 5.42282618
Cu 1.80171517 3.60772918 5.41255546
Cu 1.79034341 5.42427971 3.62570335
Cu 10.83850085 3.60802230 7.22614300
Cu 10.83929636 5.40558692 9.05260234
Cu 1.81203456 3.60631152 9.04049756
Cu 1.80215811 5.41939113 7.23377467
Cu 0.01029289 7.24650909 0.01883749
Cu 10.84180243 9.03122758 1.80824719
Cu 1.80861173 7.22097398 1.80019541
Cu 1.81633081 9.05533020 10.84216678
Cu 10.83732676 7.22610044 3.60349147
Cu 10.84161951 9.04149442 5.42135527
Cu 1.82104388 7.23106550 5.42763430
Cu 1.80543284 9.05152594 3.60081047
Cu 10.84112308 7.21603006 7.23899596
Cu 0.00913964 9.03097123 9.05591505
Cu 1.80373136 7.21364924 9.03405835
Cu 1.81118738 9.03420239 7.25518773
Cu 3.62430846 0.01874668 0.01519613
Cu 3.59556288 1.80261748 1.77652122
Cu 5.41480306 0.01184509 1.79774165
Cu 5.41499340 1.81058363 0.00838783
Cu 3.61062682 10.84145362 3.62364928
Cu 3.61740670 1.80364069 5.42578023
Cu 5.42286987 0.00207375 5.44473840
Cu 5.41847696 1.80075859 3.63054009
Cu 3.60653744 0.01868350 7.22760563
Cu 3.61550958 1.81509175 9.05081351
Cu 5.43327078 10.84205038 9.03298097
Cu 5.42594128 1.80835450 7.22259172
Cu 3.61928124 3.62560319 0.00146917
Cu 3.63227195 5.42642120 1.80541669
Cu 5.42316855 3.60800212 1.79559011
Cu 5.42743306 5.41220944 10.84056687
Cu 3.61367246 3.61865705 3.61978427
Cu 3.61522733 5.40004274 5.41996041
Cu 5.41334584 3.61308096 5.43341112
Cu 5.43119609 5.42416118 3.62029720
Cu 3.59778018 3.61646413 7.23676654
Cu 3.60669436 5.42643354 9.03285381
Cu 5.43337057 3.62671252 9.03115837
Cu 5.43863162 5.41969497 7.25291474
Cu 3.60915269 7.22993637 0.00204467
Cu 3.60618622 9.01736255 1.79814256
Cu 5.43430383 7.22566470 1.80342343
Cu 5.43921522 9.04239591 0.00759882
Cu 3.62415141 7.21899200 3.61604727
Cu 3.61628467 9.03501968 5.40989496
Cu 5.42735585 7.21061316 5.41172780
Cu 5.41300056 9.03223293 3.62412001
Cu 3.63341212 7.24867500 7.23874036
Cu 3.61971498 9.01053798 9.05002282
Cu 5.45177145 7.23440349 9.03983891
Cu 5.42995101 9.04504763 7.23117201
Cu 7.22540104 0.00341303 10.82926586
Cu 7.20831101 1.82212762 1.80195818
Cu 9.04515010 0.01685284 1.82089311
Cu 9.03092693 1.81045759 10.83158688
Cu 7.22840284 0.01100285 3.61501242
Cu 7.19755762 1.78151408 5.41305802
Cu 9.05220189 0.00160122 5.42370455
Cu 9.02226457 1.80850188 3.58912266
Cu 7.23359252 0.01264540 7.22048055
Cu 7.24181165 1.79868118 9.03880354
Cu 9.03563473 0.00040091 9.05430143
Cu 9.04708459 1.79910773 7.19846978
Cu 7.23973296 3.62293300 0.00153246
Cu 7.22336393 5.43984066 1.78701319
Cu 9.02828281 3.59787729 1.81134614
Cu 9.03185818 5.44570024 10.84482299
Cu 7.22685849 3.62083020 3.60642987
Cu 7.21742266 5.42775163 5.41673082
Cu 9.04801117 3.61804378 5.42334977
Cu 9.03787345 5.42079157 3.61920028
Cu 7.22521708 3.59212990 7.23046449
Cu 7.22454417 5.40625166 9.04599230
Cu 9.03286411 3.59457509 9.03632339
Cu 9.02944746 5.40254123 7.23319934
Cu 7.21781240 7.23750045 10.83448512
Cu 7.24067527 9.04172190 1.80843360
Cu 9.02848721 7.23954839 1.81283362
Cu 9.03295432 9.04333353 10.83310055
Cu 7.21523280 7.22831164 3.61545421
Cu 7.23444339 9.03760291 5.43612853
Cu 9.02257167 7.23568745 5.42472995
Cu 9.05235916 9.03826106 3.61826632
Cu 7.24944790 7.23823365 7.23651058
Cu 7.22522885 9.03848654 9.01848702
Cu 9.02762275 7.23659242 9.01716491
Cu 9.03826299 9.03715563 7.23408661
108
Step=600 Lattice="10.845 0 0  0 10.845 0  0 0 10.845" Properties=species:S:1:pos:R:3
Cu 10.83318870 10.84012834 0.01452740
Cu 0.00195266 1.81740484 1.81377465
Cu 1.79976111 0.00560333 1.80351545
Cu 1.80330511 1.80793641 10.82712845
Cu 0.01330344 10.83670431 3.62606213
Cu 0.00115747 1.82433987 5.41448654
Cu 1.80349514 0.00319170 5.39692469
Cu 1.81673317 1.82447544 3.62748893
Cu 0.00829513 10.84258146 7.24442185
Cu 0.01187915 1.81129003 9.03726316
Cu 1.80305445 10.83019336 9.05133542
Cu 1.78219304 1.80252021 7.23154883
Cu 0.00939535 3.63449022 0.01113423
Cu 10.84115732 5.43012050 1.79271014
Cu 1.82360047 3.61259584 1.79939173
Cu 1.79983269 5.42111070 10.84014944
Cu 0.02583207 3.60610038 3.61491685
Cu 10.84487500 5.42218161 5.42283338
Cu 1.80161091 3.60759698 5.41237854
Cu 1.79003148 5.42431315 3.62589586
Cu 10.83838302 3.60789588 7.22607424
Cu 10.83918836 5.40527776 9.05287857
Cu 1.81211617 3.60615418 9.04055171
Cu 1.80206016 5.41933324 7.23384291
Cu 0.01047856 7.24681180 0.01917883
Cu 10.84174392 9.03111497 1.80825981
Cu 1.80863362 7.22080757 1.80006369
Cu 1.81649333 9.05565515 10.84211712
Cu 10.83718781 7.22602916 3.60328340
Cu 10.84156125 9.04156346 5.42133824
Cu 1.82129103 7.23108667 5.42772918
Cu 1.80539536 9.05177645 3.60054938
Cu 10.84105048 7.21577390 7.23915980
Cu 0.00930435 9.03085071 9.05625215
Cu 1.80366114 7.21334908 9.03399778
Cu 1.81125519 9.03414291 7.25564565
Cu 3.62447936 0.01908444 0.01546910
Cu 3.59520729 1.80253083 1.77596117
Cu 5.41466223 0.01205923 1.79756732
Cu 5.41485902 1.81064327 0.00853481
Cu 3.61054856 10.84139010 3.62380207
Cu 3.61744824 1.80357186 5.42584244
Cu 5.42287294 0.00210687 5.44514351
Cu 5.41839693 1.80063668 3.63082032
Cu 3.60637924 0.01902283 7.22756598
Cu 3.61552098 1.81523005 9.05105476
Cu 5.43346377 10.84199775 9.03289703
Cu 5.42600061 1.80837112 7.22246247
Cu 3.61936005 3.62579920 0.00149302
Cu 3.63258731 5.42649225 1.80537943
Cu 5.42317821 3.60787496 1.79537532
Cu 5.42752103 5.41202293 10.84048365
Cu 3.61365067 3.61872343 3.61986804
Cu 3.61523150 5.39963387 5.41991848
Cu 5.41317866 3.61304670 5.43361190
Cu 5.43135461 5.42418654 3.62039062
Cu 3.59746482 3.61648866 7.23689137
Cu 3.60654477 5.42650714 9.03276888
Cu 5.43356753 3.62692160 9.03104376
Cu 5.43892612 5.41964502 7.25333184
Cu 3.60904903 7.22993175 0.00208060
Cu 3.60602723 9.01699588 1.79797212
Cu 5.43451907 7.22558773 1.80334738
Cu 5.43951942 9.04248613 0.00773781
Cu 3.62431654 7.21878836 3.61606530
Cu 3.61630723 9.03497455 5.40966753
Cu 5.42744414 7.21025981 5.41153663
Cu 5.41282840 9.03213950 3.62428480
Cu 3.63375180 7.24901279 7.23889840
Cu 3.61980571 9.01004925 9.05025478
Cu 5.45230521 7.23448279 9.03988256
Cu 5.43008539 9.04518558 7.23119207
Cu 7.22531751 0.00347596 10.82898191
Cu 7.20791319 1.82239249 1.80185509
Cu 9.04528802 0.01716045 1.82113574
Cu 9.03080935 1.81051139 10.83134540
Cu 7.22837220 0.01119916 3.61501186
Cu 7.19697012 1.78104388 5.41288317
Cu 9.05247148 0.00163154 5.42372398
Cu 9.02198654 1.80852151 3.58865537
Cu 7.23366242 0.01287660 7.22030840
Cu 7.24202530 1.79852030 9.03882589
Cu 9.03560310 0.00040884 9.05460401
Cu 9.04726004 1.79895256 7.19789443
Cu 7.23991131 3.62307719 0.00156001
Cu 7.22324455 5.44015636 1.78663997
Cu 9.02811552 3.59756916 1.81141520
Cu 9.03175545 5.44612588 10.84481828
Cu 7.22679884 3.62093803 3.60627476
Cu 7.21719480 5.42784377 5.41662874
Cu 9.04819838 3.61809738 5.42336029
Cu 9.03787980 5.42075884 3.61927452
Cu 7.22513264 3.59170918 7.23046957
Cu 7.22444976 5.40595454 9.04614734
Cu 9.03278099 3.59420086 9.03630168
Cu 9.02929839 5.40217448 7.23325810
Cu 7.21759252 7.23764008 10.83429129
Cu 7.24087105 9.04180299 1.80845240
Cu 9.02831958 7.23972367 1.81293040
Cu 9.03286864 9.04343875 10.83288394
Cu 7.21496564 7.22828359 3.61546181
Cu 7.23452429 9.03760681 5.43637534
Cu 9.02230037 7.23578949 5.42477085
Cu 9.05262785 9.03827633 3.61832702
Cu 7.24980094 7.23838084 7.23662780
Cu 7.22514307 9.03850851 9.01813903
Cu 9.02744407 7.23671130 9.01679681
Cu 9.03828109 9.03715427 7.23416220
108
Step=700 Lattice="10.845 0 0  0 10.845 0  0 0 10.845" Properties=species:S:1:pos:R:3
Cu 10.83297549 10.84004311 0.01478985
Cu 0.00199140 1.81758330 1.81388618
Cu 1.79962135 0.00570624 1.80344420
Cu 1.80322626 1.80794450 10.82680806
Cu 0.01354135 10.83656022 3.62625738
Cu 0.00117741 1.82463894 5.41433925
Cu 1.80342263 0.00324870 5.39647105
Cu 1.81690247 1.82477779 3.62770850
Cu 0.00844420 10.84253601 7.24468114
Cu 0.01208911 1.81135714 9.03726076
Cu 1.80297849 10.82992903 9.05158602
Cu 1.78174088 1.80242979 7.23157609
Cu 0.00956029 3.63483719 0.01133555
Cu 10.84108537 5.43025525 1.79244699
Cu 1.82389108 3.61255603 1.79924578
Cu 1.79969803 5.42108628 10.84006268
Cu 0.02629178 3.60594320 3.61491086
Cu 10.84487111 5.42217785 5.42284064
Cu 1.80150671 3.60746479 5.41220184
Cu 1.78971956 5.42434665 3.62608826
Cu 10.83826522 3.60776949 7.22600555
Cu 10.83908013 5.40496851 9.05315487
Cu 1.81219773 3.60599688 9.04060585
Cu 1.80196216 5.41927528 7.23391111
Cu 0.01066415 7.24711463 0.01952009
Cu 10.84168538 9.03100245 1.80827240
Cu 1.80865559 7.22064104 1.79993204
Cu 1.81665596 9.05598013 10.84206757
Cu 10.83704888 7.22595787 3.60307540
Cu 10.84150317 9.04163230 5.42132142
Cu 1.82153823 7.23110795 5.42782414
Cu 1.80535789 9.05202671 3.60028814
Cu 10.84097778 7.21551763 7.23932364
Cu 0.00946899 9.03073008 9.05658937
Cu 1.80359082 7.21304878 9.03393731
Cu 1.81132304 9.03408345 7.25610356
Cu 3.62465033 0.01942201 0.01574188
Cu 3.59485160 1.80244431 1.77540131
Cu 5.41452136 0.01227330 1.79739318
Cu 5.41472475 1.81070310 0.00868148
Cu 3.61047039 10.84132664 3.62395463
Cu 3.61748967 1.80350310 5.42590479
Cu 5.42287581 0.00213972 5.44554865
Cu 5.41831652 1.80051481 3.63110041
Cu 3.60622081 0.01936213 7.22752652
Cu 3.61553250 1.81536837 9.05129597
Cu 5.43365661 10.84194517 9.03281300
Cu 5.42605977 1.80838779 7.22233351
Cu 3.61943889 3.62599539 0.00151671
Cu 3.63290274 5.42656329 1.80534222
Cu 5.42318773 3.60774782 1.79516065
Cu 5.42760890 5.41183646 10.84040029