108
Step=0 Lattice="10.845 0 0  0 10.845 0  0 0 10.845" Properties=species:S:1:pos:R:3
Cu 0.00000000 0.00000000 0.00000000
Cu 0.00000000 1.80750000 1.80750000
Cu 1.80750000 0.00000000 1.80750000
Cu 1.80750000 1.80750000 0.00000000
Cu 0.00000000 0.00000000 3.61500000
Cu 0.00000000 1.80750000 5.42250000
Cu 1.80750000 0.00000000 5.42250000
Cu 1.80750000 1.80750000 3.61500000
Cu 0.00000000 0.00000000 7.23000000
Cu 0.00000000 1.80750000 9.03750000
Cu 1.80750000 0.00000000 9.03750000
Cu 1.80750000 1.80750000 7.23000000
Cu 0.00000000 3.61500000 0.00000000
Cu 0.00000000 5.42250000 1.80750000
Cu 1.80750000 3.61500000 1.80750000
Cu 1.80750000 5.42250000 0.00000000
Cu 0.00000000 3.61500000 3.61500000
Cu 0.00000000 5.42250000 5.42250000
Cu 1.80750000 3.61500000 5.42250000
Cu 1.80750000 5.42250000 3.61500000
Cu 0.00000000 3.61500000 7.23000000
Cu 0.00000000 5.42250000 9.03750000
Cu 1.80750000 3.61500000 9.03750000
Cu 1.80750000 5.42250000 7.23000000
Cu 0.00000000 7.23000000 0.00000000
Cu 0.00000000 9.03750000 1.80750000
Cu 1.80750000 7.23000000 1.80750000
Cu 1.80750000 9.03750000 0.00000000
Cu 0.00000000 7.23000000 3.61500000
Cu 0.00000000 9.03750000 5.42250000
Cu 1.80750000 7.23000000 5.42250000
Cu 1.80750000 9.03750000 3.61500000
Cu 0.00000000 7.23000000 7.23000000
Cu 0.00000000 9.03750000 9.03750000
Cu 1.80750000 7.23000000 9.03750000
Cu 1.80750000 9.03750000 7.23000000
Cu 3.61500000 0.00000000 0.00000000
Cu 3.61500000 1.80750000 1.80750000
Cu 5.42250000 0.00000000 1.80750000
Cu 5.42250000 1.80750000 0.00000000
Cu 3.61500000 0.00000000 3.61500000
Cu 3.61500000 1.80750000 5.42250000
Cu 5.42250000 0.00000000 5.42250000
Cu 5.42250000 1.80750000 3.61500000
Cu 3.61500000 0.00000000 7.23000000
Cu 3.61500000 1.80750000 9.03750000
Cu 5.42250000 0.00000000 9.03750000
Cu 5.42250000 1.80750000 7.23000000
Cu 3.61500000 3.61500000 0.00000000
Cu 3.61500000 5.42250000 1.80750000
Cu 5.42250000 3.61500000 1.80750000
Cu 5.42250000 5.42250000 0.00000000
Cu 3.61500000 3.61500000 3.61500000
Cu 3.61500000 5.42250000 5.42250000
Cu 5.42250000 3.61500000 5.42250000
Cu 5.42250000 5.42250000 3.61500000
Cu 3.61500000 3.61500000 7.23000000
Cu 3.61500000 5.42250000 9.03750000
Cu 5.42250000 3.61500000 9.03750000
Cu 5.42250000 5.42250000 7.23000000
Cu 3.61500000 7.23000000 0.00000000
Cu 3.61500000 9.03750000 1.80750000
Cu 5.42250000 7.23000000 1.80750000
Cu 5.42250000 9.03750000 0.00000000
Cu 3.61500000 7.23000000 3.61500000
Cu 3.61500000 9.03750000 5.42250000
Cu 5.42250000 7.23000000 5.42250000
Cu 5.42250000 9.03750000 3.61500000
Cu 3.61500000 7.23000000 7.23000000
Cu 3.61500000 9.03750000 9.03750000
Cu 5.42250000 7.23000000 9.03750000
Cu 5.42250000 9.03750000 7.23000000
Cu 7.23000000 0.00000000 0.00000000
Cu 7.23000000 1.80750000 1.80750000
Cu 9.03750000 0.00000000 1.80750000
Cu 9.03750000 1.80750000 0.00000000
Cu 7.23000000 0.00000000 3.61500000
Cu 7.23000000 1.80750000 5.42250000
Cu 9.03750000 0.00000000 5.42250000
Cu 9.03750000 1.80750000 3.61500000
Cu 7.23000000 0.00000000 7.23000000
Cu 7.23000000 1.80750000 9.03750000
Cu 9.03750000 0.00000000 9.03750000
Cu 9.03750000 1.80750000 7.23000000
Cu 7.23000000 3.61500000 0.00000000
Cu 7.23000000 5.42250000 1.80750000
Cu 9.03750000 3.61500000 1.80750000
Cu 9.03750000 5.42250000 0.00000000
Cu 7.23000000 3.61500000 3.61500000
Cu 7.23000000 5.42250000 5.42250000
Cu 9.03750000 3.61500000 5.42250000
Cu 9.03750000 5.42250000 3.61500000
Cu 7.23000000 3.61500000 7.23000000
Cu 7.23000000 5.42250000 9.03750000
Cu 9.03750000 3.61500000 9.03750000
Cu 9.03750000 5.42250000 7.23000000
Cu 7.23000000 7.23000000 0.00000000
Cu 7.23000000 9.03750000 1.80750000
Cu 9.03750000 7.23000000 1.80750000
Cu 9.03750000 9.03750000 0.00000000
Cu 7.23000000 7.23000000 3.61500000
Cu 7.23000000 9.03750000 5.42250000
Cu 9.03750000 7.23000000 5.42250000
Cu 9.03750000 9.03750000 3.61500000
Cu 7.23000000 7.23000000 7.23000000
Cu 7.23000000 9.03750000 9.03750000
Cu 9.03750000 7.23000000 9.03750000
Cu 9.03750000 9.03750000 7.23000000
108
Step=100 Lattice="10.845 0 0  0 10.845 0  0 0 10.845" Properties=species:S:1:pos:R:3
Cu 10.84479466 10.84491404 0.00025256
Cu 0.00003199 1.80767249 1.80760992
Cu 1.80736541 0.00009657 1.80743064
Cu 1.80742842 1.80750730 10.84468788
Cu 0.00023234 10.84485319 3.61519492
Cu 0.00002045 1.80779526 5.42236166
Cu 1.80743057 0.00005556 5.42205112
Cu 1.80765923 1.80779718 3.61522028
Cu 0.00014458 10.84495849 7.23025135
Cu 0.00020863 1.80756663 9.03749518
Cu 1.80742051 10.84474094 9.03774017
Cu 1.80705720 1.80741353 7.23002708
Cu 0.00016568 3.61534135 0.00019343
Cu 10.84493468 5.42263394 1.80724097
Cu 1.80778006 3.61495642 1.80735895
Cu 1.80736489 5.42247551 10.84491532
Cu 0.00045267 3.61484374 3.61500067
Cu 10.84499879 5.42249350 5.42250523
Cu 1.80739647 3.61487079 5.42232110
Cu 1.80719449 5.42253124 3.61519166
Cu 10.84488415 3.61487577 7.22993060
Cu 10.84490073 5.42219961 9.03776805
Cu 1.80758124 3.61484501 9.03755380
Cu 1.80740512 5.42244538 7.23006711
Cu 0.00018443 7.23029274 0.00033605
Cu 10.84494317 9.03738752 1.80751418
Cu 1.80751885 7.22984052 1.80736965
Cu 1.80765632 9.03781732 10.84494866
Cu 10.84486310 7.22993101 3.61479442
Cu 10.84493839 9.03757255 5.42247779
Cu 1.80774088 7.23001811 5.42259065
Cu 1.80746330 9.03775183 3.61474885
Cu 10.84493225 7.22975232 7.23015990
Cu 0.00016382 9.03738427 9.03782686
Cu 1.80743343 7.22971023 9.03743768
Cu 1.80756538 9.03744075 7.23044877
Cu 3.61516474 0.00033525 0.00027225
Cu 3.61465483 1.80741200 1.80694655
Cu 5.42236341 0.00021161 1.80732494
Cu 5.42236536 1.80755328 0.00015215
Cu 3.61492164 10.84493651 3.61515653
Cu 3.61504415 1.80743056 5.42255724
Cu 5.42250843 0.00003890 5.42289572
Cu 5.42243193 1.80737949 3.61527779
Cu 3.61485155 0.00033296 7.22995508
Cu 3.61500791 1.80763504 9.03773757
Cu 5.42269320 10.84494695 9.03742064
Cu 5.42256286 1.80751490 7.22986517
Cu 3.61507550 3.61518732 0.00002754
Cu 3.61530697 5.42257021 1.80746291
Cu 5.42251327 3.61487544 1.80728719
Cu 5.42258877 5.42231663 10.84492221
Cu 3.61497522 3.61506509 3.61508665
Cu 3.61500401 5.42210025 5.42245265
Cu 5.42233753 3.61496548 5.42269302
Cu 5.42265463 5.42253208 3.61509560
Cu 3.61469445 3.61502691 7.23011940
Cu 3.61485143 5.42256911 9.03741775
Cu 5.42269390 3.61521024 9.03738681
Cu 5.42278668 5.42244970 7.23040791
Cu 3.61489446 7.23000065 0.00003688
Cu 3.61484246 9.03714159 1.80733370
Cu 5.42270975 7.22992186 1.80742861
Cu 5.42279750 9.03758691 0.00013508
Cu 3.61516359 7.22980576 3.61501915
Cu 3.61502327 9.03745597 5.42227480
Cu 5.42258614 7.22965498 5.42230610
Cu 5.42233074 9.03740514 3.61516291
Cu 3.61532557 7.23033345 7.23015588
Cu 3.61508131 9.03701892 9.03772088
Cu 5.42302072 7.23007869 9.03754109
Cu 5.42263336 9.03763404 7.23002114
Cu 7.22991812 0.00006043 10.84471885
Cu 7.22961536 1.80776092 1.80740215
Cu 9.03763679 0.00029985 1.80773901
Cu 9.03738208 1.80755307 10.84476014
Cu 7.22997210 0.00019774 3.61500055
Cu 7.22942088 1.80703604 5.42233323
Cu 9.03776065 0.00002775 5.42252244
Cu 9.03722902 1.80751722 3.61453753
Cu 7.23006170 0.00022445 7.22983005
Cu 7.23021071 1.80734340 9.03752367
Cu 9.03746587 0.00000663 9.03780053
Cu 9.03766993 1.80735183 7.22943923
Cu 7.23017269 3.61514109 0.00002731
Cu 7.22988109 5.42280858 1.80713547
Cu 9.03733572 3.61469358 1.80756858
Cu 9.03739948 5.42291150 10.84499773
Cu 7.22994519 3.61510271 3.61484722
Cu 7.22977560 5.42259521 5.42239600
Cu 9.03768895 3.61505499 5.42251749
Cu 9.03750686 5.42247053 3.61507592
Cu 7.22991336 3.61459496 7.23000970
Cu 7.22990070 5.42221153 9.03765075
Cu 9.03741680 3.61463760 9.03747911
Cu 9.03735769 5.42214637 7.23005678
Cu 7.22978233 7.23013198 10.84481402
Cu 7.23018916 9.03757321 1.80751595
Cu 9.03734148 7.23016943 1.80759519
Cu 9.03742039 9.03760436 10.84478834
Cu 7.22973629 7.22996864 3.61500839
Cu 7.23007898 9.03750088 5.42274308
Cu 9.03723417 7.23010186 5.42253938
Cu 9.03776526 9.03751290 3.61505761
Cu 7.23034657 7.23014759 7.23011620
Cu 7.22991488 9.03751571 9.03716253
Cu 9.03732384 7.23011762 9.03713708
Cu 9.03751180 9.03749137 7.23007222
108
Step=200 Lattice="10.845 0 0  0 10.845 0  0 0 10.845" Properties=species:S:1:pos:R:3
Cu 10.84458654 10.84482691 0.00050857
Cu 0.00006430 1.80784737 1.80772134
Cu 1.80722898 0.00019444 1.80736042
Cu 1.80735583 1.80751463 10.84437140
Cu 0.00046785 10.84470442 3.61539268
Cu 0.00004113 1.80809459 5.42222136
Cu 1.80736023 0.00011177 5.42159598
Cu 1.80782059 1.80809846 3.61544371
Cu 0.00029115 10.84491634 7.23050613
Cu 0.00042010 1.80763421 9.03749035
Cu 1.80733988 10.84447826 9.03798362
Cu 1.80660818 1.80732584 7.23005448
Cu 0.00033366 3.61568742 0.00038947
Cu 10.84486856 5.42276972 1.80697838
Cu 1.80806397 3.61491221 1.80721603
Cu 1.80722791 5.42245067 10.84482949
Cu 0.00091165 3.61468539 3.61500135
Cu 10.84499762 5.42248690 5.42251053
Cu 1.80729146 3.61473988 5.42213972
Cu 1.80688477 5.42256292 3.61538599
Cu 10.84476672 3.61474990 7.22986021
Cu 10.84480019 5.42189509 9.03803977
Cu 1.80766363 3.61468789 9.03760842
Cu 1.80730889 5.42239005 7.23013504
Cu 0.00037154 7.23058951 0.00067675
Cu 10.84488554 9.03727344 1.80752868
Cu 1.80753790 7.22967891 1.80723757
Cu 1.80781480 9.03813908 10.84489658
Cu 10.84472432 7.22986117 3.61458598
Cu 10.84487595 9.03764601 5.42245526
Cu 1.80798513 7.23003647 5.42268253
Cu 1.80742614 9.03800712 3.61449426
Cu 10.84486368 7.22950125 7.23032194
Cu 0.00033004 9.03726684 9.03815822
Cu 1.80736585 7.22941648 9.03737446
Cu 1.80763169 9.03738059 7.23090379
Cu 3.61533170 0.00067514 0.00054832
Cu 3.61430489 1.80732275 1.80638535
Cu 5.42222496 0.00042616 1.80714752
Cu 5.42222887 1.80760731 0.00030647
Cu 3.61484222 10.84487219 3.61531535
Cu 3.61508899 1.80736014 5.42261529
Cu 5.42251706 0.00007830 5.42329694
Cu 5.42236304 1.80725726 3.61555940
Cu 3.61470112 0.00067053 7.22990938
Cu 3.61501586 1.80777194 9.03797846
Cu 5.42288909 10.84489315 9.03734028
Cu 5.42262663 1.80753007 7.22972836
Cu 3.61515193 3.61537724 0.00005548
Cu 3.61561817 5.42264148 1.80742542
Cu 5.42252680 3.61474917 1.80707148
Cu 5.42267880 5.42213078 10.84484332
Cu 3.61495008 3.61513104 3.61517448
Cu 3.61500807 5.42169496 5.42240462
Cu 5.42217287 3.61493046 5.42288866
Cu 5.42281138 5.42256469 3.61519250
Cu 3.61438469 3.61505414 7.23024037
Cu 3.61470080 5.42263919 9.03733445
Cu 5.42289050 3.61542334 9.03727208
Cu 5.42307731 5.42239876 7.23082149
Cu 3.61478742 7.23000139 0.00007422
Cu 3.61468275 9.03677821 1.80716516
Cu 5.42292234 7.22984260 1.80735634
Cu 5.42309909 9.03767513 0.00027208
Cu 3.61532943 7.22960890 3.61503858
Cu 3.61504688 9.03741138 5.42204652
Cu 5.42267338 7.22930513 5.42210957
Cu 5.42215921 9.03730898 3.61532806
Cu 3.61565563 7.23067150 7.23031385
Cu 3.61516363 9.03653112 9.03794476
Cu 5.42354870 7.23015844 9.03758277
Cu 5.42276861 9.03776991 7.23004245
Cu 7.22983515 0.00012173 10.84443383
Cu 7.22922540 1.80802542 1.80730285
Cu 9.03777546 0.00060396 1.80798136
Cu 9.03726255 1.80760702 10.84451699
Cu 7.22994375 0.00039824 3.61500111
Cu 7.22883366 1.80656560 5.42216411
Cu 9.03802488 0.00005583 5.42254515
Cu 9.03695427 1.80753467 3.61406861
Cu 7.23012420 0.00045195 7.22965775
Cu 7.23042428 1.80718470 9.03754761
Cu 9.03743131 0.00001330 9.03810521
Cu 9.03784214 1.80720163 7.22887062
Cu 7.23034776 3.61528405 0.00005494
Cu 7.22976048 5.42312141 1.80676589
Cu 9.03716917 3.61438292 1.80763801
Cu 9.03729753 5.42332871 10.84499549
Cu 7.22988961 3.61520674 3.61469240
Cu 7.22954808 5.42269178 5.42229058
Cu 9.03788046 3.61511070 5.42253524
Cu 9.03751382 5.42244072 3.61515292
Cu 7.22982542 3.61418430 7.23001949
Cu 7.22980005 5.42191909 9.03780351
Cu 9.03733242 3.61427019 9.03745793
Cu 9.03721336 5.42178785 7.23011436
Cu 7.22956168 7.23026576 10.84462546
Cu 7.23038088 9.03764745 1.80753219
Cu 9.03718085 7.23034126 1.80769173
Cu 9.03733965 9.03771021 10.84457380
Cu 7.22946889 7.22993683 3.61501691
Cu 7.23015901 9.03750177 5.42298949
Cu 9.03696468 7.23020511 5.42257925
Cu 9.03803417 9.03752597 3.61511603
Cu 7.23069793 7.23029715 7.23023392
Cu 7.22982868 9.03753164 9.03682039
Cu 9.03714530 7.23023678 9.03676914
Cu 9.03752381 9.03748254 7.23014545
108
Step=300 Lattice="10.845 0 0  0 10.845 0  0 0 10.845" Properties=species:S:1:pos:R:3
Cu 10.84437744 10.84473938 0.00076580
Cu 0.00009663 1.80802311 1.80783329
Cu 1.80709188 0.00029275 1.80728996
Cu 1.80728287 1.80752194 10.84405329
Cu 0.00070449 10.84455496 3.61559156
Cu 0.00006187 1.80839539 5.42208033
Cu 1.80728958 0.00016817 5.42113852
Cu 1.80798266 1.80840123 3.61566834
Cu 0.00043843 10.84487391 7.23076215
Cu 0.00063258 1.80770215 9.03748554
Cu 1.80725881 10.84421424 9.03822822
Cu 1.80615682 1.80723769 7.23008197
Cu 0.00050248 3.61603521 0.00058642
Cu 10.84480223 5.42290616 1.80671451
Cu 1.80834925 3.61486775 1.80707248
Cu 1.80709026 5.42242569 10.84474328
Cu 0.00137295 3.61452631 3.61500206
Cu 10.84499652 5.42248026 5.42251585
Cu 1.80718589 3.61460839 5.42195742
Cu 1.80657353 5.42259477 3.61558131
Cu 10.84464872 3.61462348 7.22978943
Cu 10.84469926 5.42158908 9.03831281
Cu 1.80774646 3.61452998 9.03766341
Cu 1.80721216 5.42233449 7.23020321
Cu 0.00055972 7.23088773 0.00101915
Cu 10.84482760 9.03715874 1.80754340
Cu 1.80755698 7.22951658 1.80710491
Cu 1.80797405 9.03846249 10.84484422
Cu 10.84458486 7.22979109 3.61437648
Cu 10.84481323 9.03771976 5.42243259
Cu 1.80823060 7.23005492 5.42277482
Cu 1.80738884 9.03826367 3.61423846
Cu 10.84479487 7.22924897 7.23048472
Cu 0.00049722 9.03714873 9.03849122
Cu 1.80729786 7.22912130 9.03731090
Cu 1.80769835 9.03732004 7.23136112
Cu 3.61549940 0.00101673 0.00082580
Cu 3.61395322 1.80723302 1.80582127
Cu 5.42208583 0.00064180 1.80696926
Cu 5.42209170 1.80766162 0.00046164
Cu 3.61476244 10.84480757 3.61547511
Cu 3.61513415 1.80728933 5.42267364
Cu 5.42252581 0.00011787 5.42370017
Cu 5.42229393 1.80713438 3.61584240
Cu 3.61455004 0.00100978 7.22986329
Cu 3.61502379 1.80790950 9.03822057
Cu 5.42308597 10.84483906 9.03725963
Cu 5.42269075 1.80754537 7.22959072
Cu 3.61522865 3.61556809 0.00008358
Cu 3.61593090 5.42271319 1.80738785
Cu 5.42254047 3.61462229 1.80685474
Cu 5.42276932 5.42194407 10.84476402
Cu 3.61492479 3.61519728 3.61526272
Cu 3.61501215 5.42128763 5.42235631
Cu 5.42200747 3.61489526 5.42308520
Cu 5.42296891 5.42259756 3.61528987
Cu 3.61407341 3.61508146 7.23036184
Cu 3.61454943 5.42270964 9.03725085
Cu 5.42308808 3.61563747 9.03715680
Cu 5.42336935 5.42234760 7.23123714
Cu 3.61467979 7.23000221 0.00011171
Cu 3.61452223 9.03641302 1.80699585
Cu 5.42313594 7.22976291 1.80728382
Cu 5.42340217 9.03776386 0.00040981
Cu 3.61549611 7.22941113 3.61505812
Cu 3.61507061 9.03736661 5.42181714
Cu 5.42276096 7.22895348 5.42191208
Cu 5.42198688 9.03721237 3.61549405
Cu 3.61598730 7.23101125 7.23047254
Cu 3.61524625 9.03604084 9.03816969
Cu 5.42407936 7.23023855 9.03762465
Cu 5.42290460 9.03790644 7.23006375
Cu 7.22975179 0.00018334 10.84414740
Cu 7.22883349 1.80829121 1.80720298
Cu 9.03791482 0.00090968 1.80822494
Cu 9.03714243 1.80766139 10.84427266
Cu 7.22991518 0.00059976 3.61500167
Cu 7.22824342 1.80609277 5.42199409
Cu 9.03829037 0.00008399 5.42256792
Cu 9.03667811 1.80755222 3.61359730
Cu 7.23018694 0.00068054 7.22948459
Cu 7.23063888 1.80702529 9.03757162
Cu 9.03739662 0.00001993 9.03841141
Cu 9.03801513 1.80705070 7.22829911
Cu 7.23052370 3.61542765 0.00008266
Cu 7.22963922 5.42343579 1.80639447
Cu 9.03700179 3.61407072 1.80770769
Cu 9.03719504 5.42374800 10.84499331
Cu 7.22983374 3.61531120 3.61453688
Cu 7.22931940 5.42278887 5.42218464
Cu 9.03807289 3.61516666 5.42255310
Cu 9.03752082 5.42241081 3.61523034
Cu 7.22973694 3.61377160 7.23002928
Cu 7.22969890 5.42162522 9.03795695
Cu 9.03724758 3.61390096 9.03743663
Cu 9.03706828 5.42142757 7.23017225
Cu 7.22933998 7.23040017 10.84443598
Cu 7.23057348 9.03772207 1.80754857
Cu 9.03701950 7.23051400 1.80778879
Cu 9.03725849 9.03781663 10.84435824
Cu 7.22920013 7.22990484 3.61502547
Cu 7.23023940 9.03750265 5.42323709
Cu 9.03669389 7.23030885 5.42261926
Cu 9.03830440 9.03753911 3.61517475
Cu 7.23105105 7.23044739 7.23035215
Cu 7.22974214 9.03754763 9.03647657
Cu 9.03696593 7.23035646 9.03639934
Cu 9.03753594 9.03747358 7.23021907
108
Step=400 Lattice="10.845 0 0  0 10.845 0  0 0 10.845" Properties=species:S:1:pos:R:3
Cu 10.84416802 10.84465171 0.00102346
Cu 0.00012889 1.80819916 1.80794543
Cu 1.80695456 0.00039120 1.80721946
Cu 1.80720977 1.80752920 10.84373456
Cu 0.00094152 10.84440527 3.61579096
Cu 0.00008259 1.80869675 5.42193902
Cu 1.80721884 0.00022456 5.42068017
Cu 1.80814493 1.80870454 3.61589348
Cu 0.00058597 10.84483133 7.23101859
Cu 0.00084542 1.80777024 9.03748078
Cu 1.80717754 10.84394970 9.03847321
Cu 1.80570454 1.80714936 7.23010945
Cu 0.00067163 3.61638365 0.00078366
Cu 10.84473591 5.42304286 1.80645019
Cu 1.80863501 3.61482317 1.80692875
Cu 1.80695236 5.42240066 10.84465693
Cu 0.00183516 3.61436699 3.61500281
Cu 10.84499549 5.42247359 5.42252117
Cu 1.80708009 3.61447675 5.42177475
Cu 1.80626172 5.42262667 3.61577701
Cu 10.84453053 3.61449691 7.22971849
Cu 10.84459827 5.42128253 9.03858631
Cu 1.80782948 3.61437179 9.03771857
Cu 1.80711521 5.42227888 7.23027141
Cu 0.00074839 7.23118646 0.00136219
Cu 10.84476954 9.03704378 1.80755828
Cu 1.80757603 7.22935402 1.80697207
Cu 1.80813357 9.03878655 10.84479174
Cu 10.84444514 7.22972098 3.61416657
Cu 10.84475041 9.03779357 5.42240984
Cu 1.80847655 7.23007340 5.42286725
Cu 1.80735153 9.03852069 3.61398224
Cu 10.84472605 7.22899628 7.23064773
Cu 0.00066484 9.03703031 9.03882481
Cu 1.80722966 7.22882562 9.03724719
Cu 1.80776515 9.03725929 7.23181932
Cu 3.61566734 0.00135897 0.00110386
Cu 3.61360091 1.80714308 1.80525605
Cu 5.42194646 0.00085787 1.80679071
Cu 5.42195428 1.80771601 0.00061718
Cu 3.61468254 10.84474287 3.61563531
Cu 3.61517948 1.80721836 5.42273210
Cu 5.42253466 0.00015750 5.42410415
Cu 5.42222486 1.80701123 3.61612592
Cu 3.61439878 0.00134965 7.22981695
Cu 3.61503165 1.80804730 9.03846316
Cu 5.42328324 10.84478484 9.03717893
Cu 5.42275503 1.80756077 7.22945268
Cu 3.61530540 3.61575927 0.00011177
Cu 3.61624419 5.42278513 1.80735032
Cu 5.42255425 3.61449520 1.80663763
Cu 5.42286005 5.42175706 10.84468456
Cu 3.61489944 3.61526360 3.61535112
Cu 3.61501624 5.42087953 5.42230786
Cu 5.42184184 3.61485997 5.42328203
Cu 5.42312672 5.42263060 3.61538741
Cu 3.61376159 3.61510879 7.23048345
Cu 3.61439778 5.42278023 9.03716718
Cu 5.42328604 3.61585197 9.03704132
Cu 5.42366190 5.42229638 7.23165358
Cu 3.61457190 7.23000311 0.00014922
Cu 3.61436142 9.03604716 1.80682629
Cu 5.42334988 7.22968304 1.80721128
Cu 5.42370578 9.03785285 0.00054783
Cu 3.61566310 7.22921307 3.61507771
Cu 3.61509441 9.03732181 5.42158737
Cu 5.42284860 7.22860113 5.42171426
Cu 5.42181429 9.03711558 3.61566034
Cu 3.61631954 7.23135163 7.23063146
Cu 3.61532888 9.03554959 9.03839496
Cu 5.42461106 7.23031878 9.03766662
Cu 5.42304088 9.03804321 7.23008499
Cu 7.22966831 0.00024508 10.84386046
Cu 7.22844088 1.80855746 1.80710284
Cu 9.03805443 0.00121606 1.80846900
Cu 9.03702209 1.80771600 10.84402790
Cu 7.22988651 0.00080169 3.61500224
Cu 7.22765199 1.80561902 5.42182373
Cu 9.03855631 0.00011214 5.42259070
Cu 9.03640141 1.80756979 3.61312506
Cu 7.23024974 0.00090949 7.22931111
Cu 7.23085383 1.80686565 9.03759563
Cu 9.03736190 0.00002650 9.03871817
Cu 9.03818838 1.80689953 7.22772648
Cu 7.23069995 3.61557144 0.00011038
Cu 7.22951769 5.42375072 1.80602237
Cu 9.03683411 3.61375793 1.80777740
Cu 9.03709233 5.42416806 10.84499120
Cu 7.22977777 3.61541575 3.61438113
Cu 7.22909027 5.42288621 5.42207852
Cu 9.03826565 3.61522269 5.42257104
Cu 9.03752783 5.42238092 3.61530795
Cu 7.22964818 3.61335816 7.23003906
Cu 7.22959757 5.42133085 9.03811061
Cu 9.03716255 3.61353106 9.03741529
Cu 9.03692290 5.42106664 7.23023026
Cu 7.22911791 7.23053479 10.84424616
Cu 7.23076638 9.03779681 1.80756503
Cu 9.03685796 7.23068711 1.80788607
Cu 9.03717718 9.03792329 10.84414234
Cu 7.22893083 7.22987276 3.61503406
Cu 7.23031991 9.03750352 5.42348512
Cu 9.03642262 7.23041277 5.42265930
Cu 9.03857511 9.03755227 3.61523360
Cu 7.23140481 7.23059785 7.23047053
Cu 7.22965553 9.03756363 9.03613214
Cu 9.03678629 7.23047629 9.03602885
Cu 9.03754813 9.03746450 7.23029285
108
Step=500 Lattice="10.845 0 0  0 10.845 0  0 0 10.845" Properties=species:S:1:pos:R:3
Cu 10.84395853 10.84456398 0.00128123
Cu 0.00016102 1.80837533 1.80805763
Cu 1.80681717 0.00048967 1.80714901
Cu 1.80713664 1.80753640 10.84341557
Cu 0.00117867 10.84425550 3.61599064
Cu 0.00010328 1.80899831 5.42179760
Cu 1.80714810 0.00028089 5.42022143
Cu 1.80830721 1.80900804 3.61611889
Cu 0.00073359 10.84478867 7.23127516
Cu 0.00105838 1.80783841 9.03747606
Cu 1.80709614 10.84368496 9.03871830
Cu 1.80525184 1.80706094 7.23013691
Cu 0.00084092 3.61673234 0.00098097
Cu 10.84466967 5.42317966 1.80618570
Cu 1.80892092 3.61477852 1.80678500
Cu 1.80681435 5.42237560 10.84457056
Cu 0.00229774 3.61420762 3.61500359
Cu 10.84499454 5.42246689 5.42252649
Cu 1.80697416 3.61434509 5.42159192
Cu 1.80594971 5.42265861 3.61597287
Cu 10.84441226 3.61437032 7.22964747
Cu 10.84449733 5.42097579 9.03885995
Cu 1.80791260 3.61421349 9.03777386
Cu 1.80701817 5.42222329 7.23033956
Cu 0.00093734 7.23148535 0.00170547
Cu 10.84471142 9.03692869 1.80757331
Cu 1.80759502 7.22919144 1.80683921
Cu 1.80829318 9.03911087 10.84473918
Cu 10.84430534 7.22965092 3.61395650
Cu 10.84468756 9.03786737 5.42238703
Cu 1.80872269 7.23009187 5.42295970
Cu 1.80731423 9.03877790 3.61372590
Cu 10.84465731 7.22874347 7.23081078
Cu 0.00083271 9.03691172 9.03915860
Cu 1.80716135 7.22852977 9.03718339
Cu 1.80783202 9.03719841 7.23227789
Cu 3.61583531 0.00170147 0.00138218
Cu 3.61324838 1.80705302 1.80469033
Cu 5.42180702 0.00107411 1.80661207
Cu 5.42181676 1.80777043 0.00077295
Cu 3.61460261 10.84467816 3.61579579
Cu 3.61522495 1.80714730 5.42279059
Cu 5.42254361 0.00019714 5.42450843
Cu 5.42215589 1.80688794 3.61640963
Cu 3.61424753 0.00168976 7.22977039
Cu 3.61503945 1.80818518 9.03870595
Cu 5.42348069 10.84473055 9.03709830
Cu 5.42281941 1.80757623 7.22931438
Cu 3.61538210 3.61595056 0.00014000
Cu 3.61655767 5.42285721 1.80731287
Cu 5.42256813 3.61436804 1.80642040
Cu 5.42295089 5.42156998 10.84460505
Cu 3.61487403 3.61532994 3.61543959
Cu 3.61502033 5.42047113 5.42225932
Cu 5.42167616 3.61482464 5.42347892
Cu 5.42328463 5.42266378 3.61548502
Cu 3.61344959 3.61513611 7.23060504
Cu 3.61424602 5.42285087 9.03708355
Cu 5.42348415 3.61606661 9.03692578
Cu 5.42395463 5.42224516 7.23207033
Cu 3.61446387 7.23000411 0.00018673
Cu 3.61420050 9.03568103 1.80665668
Cu 5.42356392 7.22960306 1.80713880
Cu 5.42400959 9.03794199 0.00068599
Cu 3.61583022 7.22901496 3.61509733
Cu 3.61511823 9.03727702 5.42135747
Cu 5.42293621 7.22824848 5.42151631
Cu 5.42164164 9.03701873 3.61582675
Cu 3.61665196 7.23169227 7.23079044
Cu 3.61541143 9.03505794 9.03862031
Cu 5.42514317 7.23039904 9.03770862
Cu 5.42317733 9.03818005 7.23010614
Cu 7.22958481 0.00030688 10.84357331
Cu 7.22804801 1.80882388 1.80700255
Cu 9.03819414 0.00152275 1.80871327
Cu 9.03690167 1.80777079 10.84378299
Cu 7.22985776 0.00100380 3.61500281
Cu 7.22706004 1.80514486 5.42165322
Cu 9.03882238 0.00014024 5.42261346
Cu 9.03612449 1.80758737 3.61265241
Cu 7.23031249 0.00113855 7.22913749
Cu 7.23106889 1.80670597 9.03761962
Cu 9.03732719 0.00003302 9.03902516
Cu 9.03836167 1.80674828 7.22715340
Cu 7.23087631 3.61571526 0.00013808
Cu 7.22939602 5.42406587 1.80565000
Cu 9.03666630 3.61344490 1.80784707
Cu 9.03698951 5.42458841 10.84498916
Cu 7.22972177 3.61552026 3.61422534
Cu 7.22886097 5.42298368 5.42197232
Cu 9.03845854 3.61527874 5.42258905
Cu 9.03753486 5.42235107 3.61538566
Cu 7.22955925 3.61294444 7.23004881
Cu 7.22949614 5.42103630 9.03826430
Cu 9.03707741 3.61316093 9.03739392
Cu 9.03677738 5.42070550 7.23028833
Cu 7.22889572 7.23066947 10.84405624
Cu 7.23095933 9.03787160 1.80758155
Cu 9.03669640 7.23086039 1.80798344
Cu 9.03709581 9.03803006 10.84392633
Cu 7.22866129 7.22984062 3.61504266
Cu 7.23040045 9.03750437 5.42373330
Cu 9.03615120 7.23051675 5.42269932
Cu 9.03884599 9.03756543 3.61529249
Cu 7.23175883 7.23074838 7.23058891
Cu 7.22956894 9.03757961 9.03578748
Cu 9.03660657 7.23059612 9.03565808
Cu 9.03756035 9.03745531 7.23036668
108
Step=600 Lattice="10.845 0 0  0 10.845 0  0 0 10.845" Properties=species:S:1:pos:R:3
Cu 10.84374905 10.84447624 0.00153902
Cu 0.00019301 1.80855152 1.80816985
Cu 1.80667977 0.00058810 1.80707864
Cu 1.80706350 1.80754355 10.84309645
Cu 0.00141584 10.84410572 3.61619054
Cu 0.00012393 1.80929996 5.42165614
Cu 1.80707740 0.00033714 5.41976249
Cu 1.80846943 1.80931163 3.61634448
Cu 0.00088123 10.84474594 7.23153175
Cu 0.00127137 1.80790663 9.03747137
Cu 1.80701466 10.84342010 9.03896339
Cu 1.80479893 1.80697249 7.23016432
Cu 0.00101030 3.61708114 0.00117825
Cu 10.84460354 5.42331650 1.80592115
Cu 1.80920685 3.61473380 1.80664129
Cu 1.80667629 5.42235053 10.84448420
Cu 0.00276050 3.61404825 3.61500442
Cu 10.84499366 5.42246017 5.42253180
Cu 1.80686817 3.61421347 5.42140899
Cu 1.80563763 5.42269055 3.61616882
Cu 10.84429398 3.61424377 7.22957638
Cu 10.84439650 5.42066901 9.03913362
Cu 1.80799578 3.61405514 9.03782926
Cu 1.80692107 5.42216774 7.23040764
Cu 0.00112649 7.23178428 0.00204887
Cu 10.84465327 9.03681351 1.80758849
Cu 1.80761395 7.22902891 1.80670638
Cu 1.80845281 9.03943533 10.84468658
Cu 10.84416550 7.22958094 3.61374633
Cu 10.84462469 9.03794113 5.42236416
Cu 1.80896892 7.23011034 5.42305213
Cu 1.80727698 9.03903521 3.61346956
Cu 10.84458867 7.22849065 7.23097382
Cu 0.00100076 9.03679301 9.03949246
Cu 1.80709296 7.22823390 9.03711952
Cu 1.80789892 9.03713741 7.23273664
Cu 3.61600325 0.00204410 0.00166064
Cu 3.61289577 1.80696289 1.80412433
Cu 5.42166756 0.00129045 1.80643340
Cu 5.42167918 1.80782484 0.00092888
Cu 3.61452267 10.84461345 3.61595648
Cu 3.61527053 1.80707618 5.42284909
Cu 5.42255267 0.00023680 5.42491283
Cu 5.42208709 1.80676456 3.61669343
Cu 3.61409635 0.00202997 7.22972364
Cu 3.61504716 1.80832308 9.03894884
Cu 5.42367824 10.84467622 9.03701775
Cu 5.42288387 1.80759175 7.22917588
Cu 3.61545872 3.61614187 0.00016830
Cu 3.61687122 5.42292939 1.80727550
Cu 5.42258211 3.61424086 1.80620313
Cu 5.42304182 5.42138289 10.84452552
Cu 3.61484858 3.61539626 3.61552809
Cu 3.61502443 5.42006260 5.42221069
Cu 5.42151051 3.61478927 5.42367579
Cu 5.42344257 5.42269710 3.61558266
Cu 3.61313754 3.61516342 7.23072657
Cu 3.61409420 5.42292153 9.03700000
Cu 5.42368232 3.61628131 9.03681021
Cu 5.42424741 5.42219396 7.23248721
Cu 3.61435575 7.23000521 0.00022421
Cu 3.61403951 9.03531481 1.80648709
Cu 5.42377796 7.22952302 1.80706643
Cu 5.42431347 9.03803122 0.00082423
Cu 3.61599740 7.22881689 3.61511697
Cu 3.61514208 9.03723226 5.42112752
Cu 5.42302375 7.22789568 5.42131829
Cu 5.42146900 9.03692185 3.61599323
Cu 3.61698441 7.23203303 7.23094941
Cu 3.61549385 9.03456607 9.03884562
Cu 5.42567547 7.23047931 9.03775063
Cu 5.42331387 9.03831691 7.23012720
Cu 7.22950130 0.00036871 10.84328608
Cu 7.22765506 1.80909037 1.80690218
Cu 9.03833389 0.00182962 1.80895764
Cu 9.03678122 1.80782573 10.84353802
Cu 7.22982895 0.00120603 3.61500339
Cu 7.22646782 1.80467051 5.42148265
Cu 9.03908848 0.00016828 5.42263621
Cu 9.03584747 1.80760495 3.61217955
Cu 7.23037517 0.00136762 7.22896382
Cu 7.23128398 1.80654632 9.03764358
Cu 9.03729249 0.00003947 9.03933226
Cu 9.03853493 1.80659703 7.22658010
Cu 7.23105271 3.61585905 0.00016573
Cu 7.22927426 5.42438108 1.80527753
Cu 9.03649845 3.61313176 1.80791667
Cu 9.03688663 5.42500887 10.84498720
Cu 7.22966576 3.61562471 3.61406955
Cu 7.22863157 5.42308125 5.42186607
Cu 9.03865147 3.61533479 5.42260712
Cu 9.03754190 5.42232128 3.61546345
Cu 7.22947016 3.61253065 7.23005856
Cu 7.22939466 5.42074172 9.03841795
Cu 9.03699221 3.61279071 9.03737254
Cu 9.03663181 5.42034429 7.23034643
Cu 7.22867348 7.23080412 10.84386628
Cu 7.23115227 9.03794638 1.80759813
Cu 9.03653490 7.23103375 1.80808089
Cu 9.03701442 9.03813691 10.84371031
Cu 7.22839163 7.22980843 3.61505128
Cu 7.23048097 9.03750520 5.42398152
Cu 9.03587972 7.23062075 5.42273929
Cu 9.03911694 9.03757858 3.61535141
Cu 7.23211296 7.23089890 7.23070725
Cu 7.22948241 9.03759556 9.03544277
Cu 9.03642685 7.23071593 9.03528718
Cu 9.03757259 9.03744599 7.23044055
108
Step=700 Lattice="10.845 0 0  0 10.845 0  0 0 10.845" Properties=species:S:1:pos:R:3
Cu 10.84353963 10.84438850 0.00179676
Cu 0.00022484 1.80872772 1.80828206
Cu 1.80654239 0.00068648 1.80700836
Cu 1.80699039 1.80755063 10.84277726
Cu 0.00165299 10.84395592 3.61639062
Cu 0.00014454 1.80960166 5.42151466
Cu 1.80700673 0.00039330 5.41930340
Cu 1.80863154 1.80961525 3.61657022
Cu 0.00102887 10.84470316 7.23178833
Cu 0.00148437 1.80797488 9.03746672
Cu 1.80693308 10.84315518 9.03920841
Cu 1.80434586 1.80688402 7.23019169
Cu 0.00117973 3.61742999 0.00137547
Cu 10.84453755 5.42345337 1.80565659
Cu 1.80949276 3.61468902 1.80649766
Cu 1.80653819 5.42232543 10.84439785
Cu 0.00322339 3.61388889 3.61500532
Cu 10.84499287 5.42245341 5.42253709
Cu 1.80676210 3.61408191 5.42122599
Cu 1.80532551 5.42272250 3.61636485
Cu 10.84417569 3.61411728 7.22950524
Cu 10.84429581 5.42036221 9.03940728
Cu 1.80807901 3.61389677 9.03788474
Cu 1.80682394 5.42211224 7.23047564
Cu 0.00131581 7.23208320 0.00239233
Cu 10.84459509 9.03669826 1.80760380
Cu 1.80763280 7.22886645 1.80657358
Cu 1.80861243 9.03975987 10.84463392
Cu 10.84402564 7.22951105 3.61353611
Cu 10.84456180 9.03801487 5.42234123
Cu 1.80921519 7.23012878 5.42314452
Cu 1.80723976 9.03929258 3.61321326
Cu 10.84452014 7.22823785 7.23113681
Cu 0.00116897 9.03667422 9.03982633
Cu 1.80702450 7.22793804 9.03705559
Cu 1.80796584 9.03707632 7.23319549
Cu 3.61617111 0.00238681 0.00193923
Cu 3.61254313 1.80687268 1.80355814
Cu 5.42152812 0.00150685 1.80625472
Cu 5.42154157 1.80787923 0.00108496
Cu 3.61444273 10.84454876 3.61611737
Cu 3.61531622 1.80700501 5.42290757
Cu 5.42256184 0.00027648 5.42531729
Cu 5.42201848 1.80664111 3.61697728
Cu 3.61394528 0.00237024 7.22967669
Cu 3.61505479 1.80846099 9.03919180
Cu 5.42387586 10.84462186 9.03693731
Cu 5.42294840 1.80760732 7.22903717
Cu 3.61553524 3.61633317 0.00019664
Cu 3.61718478 5.42300167 1.80723823
Cu 5.42259619 3.61411368 1.80598586
Cu 5.42313281 5.42119583 10.84444599
Cu 3.61482309 3.61546255 3.61561662