108
Step=0 Lattice="12.24 0 0  0 12.24 0  0 0 12.24" Properties=species:S:1:pos:R:3
Au 0.00000000 0.00000000 0.00000000
Au 0.00000000 2.04000000 2.04000000
Au 2.04000000 0.00000000 2.04000000
Au 2.04000000 2.04000000 0.00000000
Au 0.00000000 0.00000000 4.08000000
Au 0.00000000 2.04000000 6.12000000
Au 2.04000000 0.00000000 6.12000000
Au 2.04000000 2.04000000 4.08000000
Au 0.00000000 0.00000000 8.16000000
Au 0.00000000 2.04000000 10.20000000
Au 2.04000000 0.00000000 10.20000000
Au 2.04000000 2.04000000 8.16000000
Au 0.00000000 4.08000000 0.00000000
Au 0.00000000 6.12000000 2.04000000
Au 2.04000000 4.08000000 2.04000000
Au 2.04000000 6.12000000 0.00000000
Au 0.00000000 4.08000000 4.08000000
Au 0.00000000 6.12000000 6.12000000
Au 2.04000000 4.08000000 6.12000000
Au 2.04000000 6.12000000 4.08000000
Au 0.00000000 4.08000000 8.16000000
Au 0.00000000 6.12000000 10.20000000
Au 2.04000000 4.08000000 10.20000000
Au 2.04000000 6.12000000 8.16000000
Au 0.00000000 8.16000000 0.00000000
Au 0.00000000 10.20000000 2.04000000
Au 2.04000000 8.16000000 2.04000000
Au 2.04000000 10.20000000 0.00000000
Au 0.00000000 8.16000000 4.08000000
Au 0.00000000 10.20000000 6.12000000
Au 2.04000000 8.16000000 6.12000000
Au 2.04000000 10.20000000 4.08000000
Au 0.00000000 8.16000000 8.16000000
Au 0.00000000 10.20000000 10.20000000
Au 2.04000000 8.16000000 10.20000000
Au 2.04000000 10.20000000 8.16000000
Au 4.08000000 0.00000000 0.00000000
Au 4.08000000 2.04000000 2.04000000
Au 6.12000000 0.00000000 2.04000000
Au 6.12000000 2.04000000 0.00000000
Au 4.08000000 0.00000000 4.08000000
Au 4.08000000 2.04000000 6.12000000
Au 6.12000000 0.00000000 6.12000000
Au 6.12000000 2.04000000 4.08000000
Au 4.08000000 0.00000000 8.16000000
Au 4.08000000 2.04000000 10.20000000
Au 6.12000000 0.00000000 10.20000000
Au 6.12000000 2.04000000 8.16000000
Au 4.08000000 4.08000000 0.00000000
Au 4.08000000 6.12000000 2.04000000
Au 6.12000000 4.08000000 2.04000000
Au 6.12000000 6.12000000 0.00000000
Au 4.08000000 4.08000000 4.08000000
Au 4.08000000 6.12000000 6.12000000
Au 6.12000000 4.08000000 6.12000000
Au 6.12000000 6.12000000 4.08000000
Au 4.08000000 4.08000000 8.16000000
Au 4.08000000 6.12000000 10.20000000
Au 6.12000000 4.08000000 10.20000000
Au 6.12000000 6.12000000 8.16000000
Au 4.08000000 8.16000000 0.00000000
Au 4.08000000 10.20000000 2.04000000
Au 6.12000000 8.16000000 2.04000000
Au 6.12000000 10.20000000 0.00000000
Au 4.08000000 8.16000000 4.08000000
Au 4.08000000 10.20000000 6.12000000
Au 6.12000000 8.16000000 6.12000000
Au 6.12000000 10.20000000 4.08000000
Au 4.08000000 8.16000000 8.16000000
Au 4.08000000 10.20000000 10.20000000
Au 6.12000000 8.16000000 10.20000000
Au 6.12000000 10.20000000 8.16000000
Au 8.16000000 0.00000000 0.00000000
Au 8.16000000 2.04000000 2.04000000
Au 10.20000000 0.00000000 2.04000000
Au 10.20000000 2.04000000 0.00000000
Au 8.16000000 0.00000000 4.08000000
Au 8.16000000 2.04000000 6.12000000
Au 10.20000000 0.00000000 6.12000000
Au 10.20000000 2.04000000 4.08000000
Au 8.16000000 0.00000000 8.16000000
Au 8.16000000 2.04000000 10.20000000
Au 10.20000000 0.00000000 10.20000000
Au 10.20000000 2.04000000 8.16000000
Au 8.16000000 4.08000000 0.00000000
Au 8.16000000 6.12000000 2.04000000
Au 10.20000000 4.08000000 2.04000000
Au 10.20000000 6.12000000 0.00000000
Au 8.16000000 4.08000000 4.08000000
Au 8.16000000 6.12000000 6.12000000
Au 10.20000000 4.08000000 6.12000000
Au 10.20000000 6.12000000 4.08000000
Au 8.16000000 4.08000000 8.16000000
Au 8.16000000 6.12000000 10.20000000
Au 10.20000000 4.08000000 10.20000000
Au 10.20000000 6.12000000 8.16000000
Au 8.16000000 8.16000000 0.00000000
Au 8.16000000 10.20000000 2.04000000
Au 10.20000000 8.16000000 2.04000000
Au 10.20000000 10.20000000 0.00000000
Au 8.16000000 8.16000000 4.08000000
Au 8.16000000 10.20000000 6.12000000
Au 10.20000000 8.16000000 6.12000000
Au 10.20000000 10.20000000 4.08000000
Au 8.16000000 8.16000000 8.16000000
Au 8.16000000 10.20000000 10.20000000
Au 10.20000000 8.16000000 10.20000000
Au 10.20000000 10.20000000 8.16000000
108
Step=10 Lattice="12.24 0 0  0 12.24 0  0 0 12.24" Properties=species:S:1:pos:R:3
Au 12.23998848 12.23999518 0.00001416
Au 0.00000180 2.04000967 2.04000616
Au 2.03999245 0.00000542 2.03999611
Au 2.03999599 2.04000041 12.23998250
Au 0.00001303 12.23999177 4.08001093
Au 0.00000115 2.04001656 6.11999224
Au 2.03999611 0.00000312 6.11997483
Au 2.04000893 2.04001667 4.08001235
Au 0.00000811 12.23999767 8.16001410
Au 0.00001170 2.04000374 10.19999973
Au 2.03999554 12.23998547 10.20001347
Au 2.03997517 2.03999515 8.16000152
Au 0.00000929 4.08001914 0.00001085
Au 12.23999633 6.12000751 2.03998547
Au 2.04001571 4.07999756 2.03999209
Au 2.03999242 6.11999863 12.23999525
Au 0.00002538 4.07999124 4.08000004
Au 12.23999993 6.11999964 6.12000029
Au 2.03999420 4.07999275 6.11998997
Au 2.03998287 6.12000175 4.08001075
Au 12.23999350 4.07999303 8.15999611
Au 12.23999443 6.11998315 10.20001503
Au 2.04000455 4.07999131 10.20000301
Au 2.03999468 6.11999694 8.16000377
Au 0.00001034 8.16001642 0.00001885
Au 12.23999681 10.19999369 2.04000079
Au 2.04000106 8.15999105 2.03999269
Au 2.04000877 10.20001779 12.23999712
Au 12.23999232 8.15999613 4.07998847
Au 12.23999654 10.20000407 6.11999875
Au 2.04001351 8.16000102 6.12000508
Au 2.03999794 10.20001412 4.07998591
Au 12.23999620 8.15998611 8.16000897
Au 0.00000918 10.19999351 10.20001833
Au 2.03999627 8.15998375 10.19999651
Au 2.04000367 10.19999668 8.16002517
Au 4.08000924 0.00001880 0.00001527
Au 4.07998064 2.03999507 2.03996897
Au 6.11999234 0.00001187 2.03999018
Au 6.11999245 2.04000299 0.00000853
Au 4.07999560 12.23999644 4.08000877
Au 4.08000247 2.03999611 6.12000321
Au 6.12000047 0.00000218 6.12002219
Au 6.11999618 2.03999324 4.08001558
Au 4.07999167 0.00001867 8.15999748
Au 4.08000045 2.04000757 10.20001332
Au 6.12001083 12.23999703 10.19999555
Au 6.12000352 2.04000083 8.15999244
Au 4.08000424 4.08001050 0.00000154
Au 4.08001721 6.12000393 2.03999792
Au 6.12000074 4.07999301 2.03998806
Au 6.12000498 6.11998972 12.23999564
Au 4.07999861 4.08000365 4.08000486
Au 4.08000022 6.11997758 6.11999735
Au 6.11999089 4.07999806 6.12001083
Au 6.12000867 6.12000180 4.08000536
Au 4.07998286 4.08000151 8.16000670
Au 4.07999167 6.12000387 10.19999538
Au 6.12001087 4.08001179 10.19999365
Au 6.12001608 6.11999718 8.16002287
Au 4.07999408 8.16000003 0.00000207
Au 4.07999117 10.19997990 2.03999067
Au 6.12001176 8.15999562 2.03999599
Au 6.12001668 10.20000487 0.00000757
Au 4.08000917 8.15998911 4.08000107
Au 4.08000130 10.19999753 6.11998737
Au 6.12000483 8.15998065 6.11998913
Au 6.11999051 10.19999468 4.08000914
Au 4.08001826 8.16001870 8.16000874
Au 4.08000456 10.19997302 10.20001239
Au 6.12002920 8.16000441 10.20000230
Au 6.12000748 10.20000752 8.16000119
Au 8.15999541 0.00000339 12.23998423
Au 8.15997843 2.04001463 2.03999452
Au 10.20000767 0.00001681 2.04001340
Au 10.19999339 2.04000297 12.23998655
Au 8.15999844 0.00001109 4.08000003
Au 8.15996753 2.03997398 6.11999065
Au 10.20001462 0.00000156 6.12000126
Au 10.19998481 2.04000097 4.07997407
Au 8.16000346 0.00001259 8.15999047
Au 8.16001182 2.03999122 10.20000133
Au 10.19999808 0.00000037 10.20001685
Au 10.20000953 2.03999169 8.15996856
Au 8.16000968 4.08000791 0.00000153
Au 8.15999333 6.12001730 2.03997956
Au 10.19999079 4.07998282 2.04000385
Au 10.19999436 6.12002308 12.23999987
Au 8.15999693 4.08000576 4.07999143
Au 8.15998742 6.12000534 6.11999417
Au 10.20001060 4.08000308 6.12000098
Au 10.20000038 6.11999835 4.08000426
Au 8.15999514 4.07997729 8.16000055
Au 8.15999443 6.11998382 10.20000846
Au 10.19999534 4.07997968 10.19999883
Au 10.19999202 6.11998017 8.16000318
Au 8.15998779 8.16000740 12.23998957
Au 8.16001061 10.20000410 2.04000089
Au 10.19999111 8.16000950 2.04000534
Au 10.19999554 10.20000585 12.23998813
Au 8.15998521 8.15999824 4.08000047
Au 8.16000443 10.20000005 6.12001363
Au 10.19998509 8.16000571 6.12000221
Au 10.20001488 10.20000072 4.08000323
Au 8.16001943 8.16000828 8.16000652
Au 8.15999522 10.20000088 10.19998108
Au 10.19999012 8.16000660 10.19997965
Au 10.20000066 10.19999952 8.16000405
108
Step=20 Lattice="12.24 0 0  0 12.24 0  0 0 12.24" Properties=species:S:1:pos:R:3
Au 12.23997697 12.23999036 0.00002833
Au 0.00000359 2.04001935 2.04001233
Au 2.03998490 0.00001083 2.03999221
Au 2.03999197 2.04000082 12.23996500
Au 0.00002606 12.23998353 4.08002185
Au 0.00000230 2.04003312 6.11998449
Au 2.03999221 0.00000624 6.11994966
Au 2.04001786 2.04003333 4.08002470
Au 0.00001622 12.23999535 8.16002819
Au 0.00002340 2.04000747 10.19999946
Au 2.03999109 12.23997095 10.20002694
Au 2.03995034 2.03999030 8.16000304
Au 0.00001858 4.08003828 0.00002170
Au 12.23999267 6.12001502 2.03997095
Au 2.04003141 4.07999511 2.03998418
Au 2.03998485 6.11999725 12.23999050
Au 0.00005077 4.07998247 4.08000007
Au 12.23999986 6.11999927 6.12000059
Au 2.03998839 4.07998550 6.11997994
Au 2.03996573 6.12000350 4.08002150
Au 12.23998701 4.07998606 8.15999222
Au 12.23998886 6.11996631 10.20003006
Au 2.04000911 4.07998262 10.20000603
Au 2.03998936 6.11999387 8.16000753
Au 0.00002068 8.16003283 0.00003769
Au 12.23999363 10.19998739 2.04000158
Au 2.04000212 8.15998211 2.03998538
Au 2.04001753 10.20003559 12.23999424
Au 12.23998465 8.15999226 4.07997694
Au 12.23999309 10.20000814 6.11999751
Au 2.04002702 8.16000203 6.12001017
Au 2.03999588 10.20002825 4.07997183
Au 12.23999240 8.15997222 8.16001794
Au 0.00001837 10.19998703 10.20003666
Au 2.03999254 8.15996750 10.19999301
Au 2.04000733 10.19999336 8.16005033
Au 4.08001848 0.00003760 0.00003053
Au 4.07996129 2.03999013 2.03993793
Au 6.11998468 0.00002373 2.03998036
Au 6.11998490 2.04000597 0.00001706
Au 4.07999121 12.23999288 4.08001755
Au 4.08000495 2.03999221 6.12000642
Au 6.12000094 0.00000437 6.12004438
Au 6.11999236 2.03998649 4.08003116
Au 4.07998335 0.00003734 8.15999497
Au 4.08000089 2.04001515 10.20002664
Au 6.12002167 12.23999405 10.19999109
Au 6.12000705 2.04000167 8.15998489
Au 4.08000847 4.08002101 0.00000309
Au 4.08003443 6.12000787 2.03999583
Au 6.12000148 4.07998603 2.03997613
Au 6.12000995 6.11997943 12.23999128
Au 4.07999722 4.08000730 4.08000972
Au 4.08000045 6.11995517 6.11999469
Au 6.11998177 4.07999613 6.12002165
Au 6.12001734 6.12000359 4.08001072
Au 4.07996573 4.08000302 8.16001340
Au 4.07998334 6.12000775 10.19999077
Au 6.12002175 4.08002358 10.19998730
Au 6.12003215 6.11999436 8.16004575
Au 4.07998817 8.16000007 0.00000414
Au 4.07998233 10.19995980 2.03998134
Au 6.12002353 8.15999124 2.03999199
Au 6.12003337 10.20000974 0.00001515
Au 4.08001835 8.15997821 4.08000215
Au 4.08000261 10.19999506 6.11997474
Au 6.12000967 8.15996131 6.11997825
Au 6.11998101 10.19998936 4.08001827
Au 4.08003652 8.16003740 8.16001749
Au 4.08000912 10.19994605 10.20002478
Au 6.12005840 8.16000883 10.20000461
Au 6.12001495 10.20001503 8.16000238
Au 8.15999082 0.00000678 12.23996847
Au 8.15995686 2.04002927 2.03998903
Au 10.20001534 0.00003362 2.04002681
Au 10.19998677 2.04000594 12.23997310
Au 8.15999688 0.00002218 4.08000006
Au 8.15993505 2.03994797 6.11998130
Au 10.20002924 0.00000312 6.12000252
Au 10.19996961 2.04000193 4.07994813
Au 8.16000692 0.00002518 8.15998094
Au 8.16002364 2.03998243 10.20000266
Au 10.19999617 0.00000075 10.20003371
Au 10.20001906 2.03998338 8.15993711
Au 8.16001937 4.08001583 0.00000307
Au 8.15998667 6.12003461 2.03995912
Au 10.19998157 4.07996563 2.04000770
Au 10.19998873 6.12004615 12.23999974
Au 8.15999385 4.08001152 4.07998286
Au 8.15997483 6.12001068 6.11998833
Au 10.20002119 4.08000617 6.12000196
Au 10.20000077 6.11999669 4.08000851
Au 8.15999029 4.07995457 8.16000109
Au 8.15998886 6.11996764 10.20001691
Au 10.19999067 4.07995936 10.19999766
Au 10.19998404 6.11996034 8.16000637
Au 8.15997558 8.16001480 12.23997914
Au 8.16002122 10.20000821 2.04000179
Au 10.19998222 8.16001900 2.04001067
Au 10.19999107 10.20001170 12.23997626
Au 8.15997043 8.15999648 4.08000094
Au 8.16000886 10.20000010 6.12002727
Au 10.19997018 8.16001143 6.12000442
Au 10.20002975 10.20000145 4.08000646
Au 8.16003887 8.16001656 8.16001304
Au 8.15999045 10.20000176 10.19996215
Au 10.19998024 8.16001320 10.19995930
Au 10.20000132 10.19999904 8.16000810
108
Step=30 Lattice="12.24 0 0  0 12.24 0  0 0 12.24" Properties=species:S:1:pos:R:3
Au 12.23996545 12.23998554 0.00004249
Au 0.00000539 2.04002902 2.04001849
Au 2.03997736 0.00001625 2.03998832
Au 2.03998796 2.04000123 12.23994750
Au 0.00003909 12.23997530 4.08003278
Au 0.00000345 2.04004967 6.11997673
Au 2.03998832 0.00000936 6.11992449
Au 2.04002679 2.04005000 4.08003705
Au 0.00002432 12.23999302 8.16004229
Au 0.00003510 2.04001121 10.19999918
Au 2.03998663 12.23995642 10.20004041
Au 2.03992551 2.03998546 8.16000456
Au 0.00002787 4.08005743 0.00003255
Au 12.23998900 6.12002253 2.03995642
Au 2.04004712 4.07999267 2.03997626
Au 2.03997727 6.11999588 12.23998575
Au 0.00007615 4.07997371 4.08000011
Au 12.23999979 6.11999891 6.12000088
Au 2.03998259 4.07997826 6.11996990
Au 2.03994860 6.12000525 4.08003224
Au 12.23998051 4.07997909 8.15998833
Au 12.23998329 6.11994946 10.20004510
Au 2.04001366 4.07997393 10.20000904
Au 2.03998404 6.11999081 8.16001130
Au 0.00003102 8.16004925 0.00005654
Au 12.23999044 10.19998108 2.04000237
Au 2.04000318 8.15997316 2.03997806
Au 2.04002630 10.20005338 12.23999136
Au 12.23997697 8.15998839 4.07996542
Au 12.23998963 10.20001221 6.11999626
Au 2.04004052 8.16000305 6.12001525
Au 2.03999382 10.20004237 4.07995774
Au 12.23998859 8.15995833 8.16002691
Au 0.00002755 10.19998054 10.20005499
Au 2.03998881 8.15995125 10.19998952
Au 2.04001100 10.19999004 8.16007550
Au 4.08002772 0.00005640 0.00004580
Au 4.07994193 2.03998520 2.03990690
Au 6.11997702 0.00003560 2.03997054
Au 6.11997735 2.04000896 0.00002559
Au 4.07998681 12.23998932 4.08002632
Au 4.08000742 2.03998832 6.12000963
Au 6.12000141 0.00000655 6.12006657
Au 6.11998854 2.03997973 4.08004674
Au 4.07997502 0.00005602 8.15999246
Au 4.08000134 2.04002272 10.20003997
Au 6.12003250 12.23999108 10.19998664
Au 6.12001057 2.04000250 8.15997733
Au 4.08001271 4.08003151 0.00000463
Au 4.08005164 6.12001180 2.03999375
Au 6.12000223 4.07997904 2.03996419
Au 6.12001493 6.11996915 12.23998692
Au 4.07999583 4.08001095 4.08001458
Au 4.08000067 6.11993275 6.11999204
Au 6.11997266 4.07999419 6.12003248
Au 6.12002601 6.12000539 4.08001609
Au 4.07994859 4.08000453 8.16002009
Au 4.07997500 6.12001162 10.19998615
Au 6.12003262 4.08003537 10.19998096
Au 6.12004823 6.11999153 8.16006862
Au 4.07998225 8.16000010 0.00000621
Au 4.07997350 10.19993970 2.03997202
Au 6.12003529 8.15998686 2.03998798
Au 6.12005005 10.20001461 0.00002272
Au 4.08002752 8.15996732 4.08000322
Au 4.08000391 10.19999259 6.11996211
Au 6.12001450 8.15994196 6.11996738
Au 6.11997152 10.19998404 4.08002741
Au 4.08005477 8.16005610 8.16002623
Au 4.08001369 10.19991907 10.20003716
Au 6.12008760 8.16001324 10.20000691
Au 6.12002243 10.20002255 8.16000357
Au 8.15998622 0.00001017 12.23995270
Au 8.15993529 2.04004390 2.03998355
Au 10.20002301 0.00005044 2.04004021
Au 10.19998016 2.04000892 12.23995964
Au 8.15999531 0.00003327 4.08000009
Au 8.15990258 2.03992195 6.11997195
Au 10.20004385 0.00000467 6.12000378
Au 10.19995442 2.04000290 4.07992220
Au 8.16001038 0.00003776 8.15997141
Au 8.16003545 2.03997365 10.20000399
Au 10.19999425 0.00000112 10.20005056
Au 10.20002859 2.03997507 8.15990567
Au 8.16002905 4.08002374 0.00000460
Au 8.15998000 6.12005191 2.03993867
Au 10.19997236 4.07994845 2.04001155
Au 10.19998309 6.12006923 12.23999961
Au 8.15999078 4.08001729 4.07997429
Au 8.15996225 6.12001601 6.11998250
Au 10.20003179 4.08000925 6.12000294
Au 10.20000115 6.11999504 4.08001277
Au 8.15998543 4.07993186 8.16000164
Au 8.15998329 6.11995147 10.20002537
Au 10.19998601 4.07993903 10.19999649
Au 10.19997606 6.11994051 8.16000955
Au 8.15996338 8.16002220 12.23996871
Au 8.16003183 10.20001231 2.04000268
Au 10.19997333 8.16002850 2.04001601
Au 10.19998661 10.20001755 12.23996439
Au 8.15995564 8.15999473 4.08000141
Au 8.16001329 10.20000015 6.12004090
Au 10.19995528 8.16001714 6.12000663
Au 10.20004463 10.20000217 4.08000969
Au 8.16005830 8.16002484 8.16001956
Au 8.15998567 10.20000264 10.19994323
Au 10.19997036 8.16001979 10.19993895
Au 10.20000198 10.19999855 8.16001215
108
Step=40 Lattice="12.24 0 0  0 12.24 0  0 0 12.24" Properties=species:S:1:pos:R:3
Au 12.23995393 12.23998071 0.00005666
Au 0.00000719 2.04003869 2.04002466
Au 2.03996981 0.00002166 2.03998443
Au 2.03998395 2.04000164 12.23992999
Au 0.00005212 12.23996706 4.08004371
Au 0.00000459 2.04006623 6.11996897
Au 2.03998442 0.00001247 6.11989931
Au 2.04003573 2.04006666 4.08004940
Au 0.00003243 12.23999070 8.16005638
Au 0.00004680 2.04001494 10.19999891
Au 2.03998217 12.23994189 10.20005388
Au 2.03990069 2.03998061 8.16000608
Au 0.00003716 4.08007657 0.00004339
Au 12.23998533 6.12003005 2.03994189
Au 2.04006282 4.07999023 2.03996835
Au 2.03996969 6.11999451 12.23998100
Au 0.00010153 4.07996494 4.08000015
Au 12.23999972 6.11999854 6.12000117
Au 2.03997678 4.07997101 6.11995987
Au 2.03993147 6.12000701 4.08004299
Au 12.23997401 4.07997212 8.15998444
Au 12.23997772 6.11993262 10.20006013
Au 2.04001822 4.07996523 10.20001206
Au 2.03997872 6.11998774 8.16001507
Au 0.00004135 8.16006567 0.00007538
Au 12.23998726 10.19997477 2.04000316
Au 2.04000423 8.15996422 2.03997075
Au 2.04003507 10.20007117 12.23998849
Au 12.23996929 8.15998451 4.07995389
Au 12.23998617 10.20001629 6.11999502
Au 2.04005403 8.16000406 6.12002034
Au 2.03999176 10.20005649 4.07994366
Au 12.23998479 8.15994444 8.16003588
Au 0.00003673 10.19997405 10.20007332
Au 2.03998508 8.15993500 10.19998602
Au 2.04001466 10.19998672 8.16010066
Au 4.08003696 0.00007520 0.00006107
Au 4.07992257 2.03998027 2.03987586
Au 6.11996936 0.00004746 2.03996072
Au 6.11996980 2.04001195 0.00003412
Au 4.07998242 12.23998575 4.08003510
Au 4.08000989 2.03998443 6.12001284
Au 6.12000188 0.00000873 6.12008876
Au 6.11998472 2.03997297 4.08006231
Au 4.07996669 0.00007469 8.15998994
Au 4.08000178 2.04003029 10.20005329
Au 6.12004334 12.23998810 10.19998219
Au 6.12001410 2.04000333 8.15996977
Au 4.08001695 4.08004202 0.00000618
Au 4.08006886 6.12001574 2.03999167
Au 6.12000297 4.07997206 2.03995226
Au 6.12001991 6.11995886 12.23998255
Au 4.07999444 4.08001460 4.08001944
Au 4.08000090 6.11991033 6.11998938
Au 6.11996355 4.07999226 6.12004330
Au 6.12003469 6.12000719 4.08002145
Au 4.07993146 4.08000604 8.16002679
Au 4.07996667 6.12001550 10.19998154
Au 6.12004349 4.08004716 10.19997461
Au 6.12006431 6.11998871 8.16009150
Au 4.07997633 8.16000014 0.00000828
Au 4.07996466 10.19991960 2.03996269
Au 6.12004705 8.15998248 2.03998397
Au 6.12006673 10.20001949 0.00003029
Au 4.08003669 8.15995642 4.08000430
Au 4.08000522 10.19999012 6.11994948
Au 6.12001933 8.15992262 6.11995650
Au 6.11996203 10.19997872 4.08003654
Au 4.08007303 8.16007480 8.16003497
Au 4.08001825 10.19989209 10.20004955
Au 6.12011680 8.16001766 10.20000922
Au 6.12002991 10.20003007 8.16000475
Au 8.15998163 0.00001355 12.23993693
Au 8.15991372 2.04005853 2.03997806
Au 10.20003069 0.00006725 2.04005361
Au 10.19997355 2.04001189 12.23994619
Au 8.15999375 0.00004435 4.08000012
Au 8.15987011 2.03989593 6.11996260
Au 10.20005847 0.00000623 6.12000504
Au 10.19993922 2.04000386 4.07989627
Au 8.16001384 0.00005035 8.15996188
Au 8.16004727 2.03996486 10.20000532
Au 10.19999234 0.00000150 10.20006742
Au 10.20003812 2.03996676 8.15987422
Au 8.16003874 4.08003166 0.00000613
Au 8.15997333 6.12006922 2.03991823
Au 10.19996315 4.07993126 2.04001540
Au 10.19997746 6.12009230 12.23999948
Au 8.15998771 4.08002305 4.07996572
Au 8.15994967 6.12002135 6.11997667
Au 10.20004239 4.08001234 6.12000392
Au 10.20000154 6.11999338 4.08001703
Au 8.15998058 4.07990915 8.16000218
Au 8.15997772 6.11993529 10.20003382
Au 10.19998134 4.07991871 10.19999532
Au 10.19996808 6.11992068 8.16001273
Au 8.15995117 8.16002961 12.23995828
Au 8.16004244 10.20001642 2.04000357
Au 10.19996443 8.16003800 2.04002135
Au 10.19998214 10.20002341 12.23995252
Au 8.15994085 8.15999297 4.08000188
Au 8.16001772 10.20000020 6.12005453
Au 10.19994037 8.16002285 6.12000884
Au 10.20005951 10.20000289 4.08001292
Au 8.16007774 8.16003311 8.16002608
Au 8.15998090 10.20000352 10.19992430
Au 10.19996048 8.16002639 10.19991859
Au 10.20000264 10.19999807 8.16001620
108
Step=50 Lattice="12.24 0 0  0 12.24 0  0 0 12.24" Properties=species:S:1:pos:R:3
Au 12.23994242 12.23997589 0.00007082
Au 0.00000899 2.04004837 2.04003082
Au 2.03996226 0.00002708 2.03998054
Au 2.03997993 2.04000205 12.23991249
Au 0.00006515 12.23995883 4.08005463
Au 0.00000574 2.04008279 6.11996122
Au 2.03998053 0.00001559 6.11987414
Au 2.04004466 2.04008333 4.08006175
Au 0.00004054 12.23998837 8.16007048
Au 0.00005851 2.04001868 10.19999864
Au 2.03997772 12.23992737 10.20006735
Au 2.03987586 2.03997576 8.16000760
Au 0.00004646 4.08009571 0.00005424
Au 12.23998167 6.12003756 2.03992736
Au 2.04007853 4.07998778 2.03996044
Au 2.03996211 6.11999313 12.23997625
Au 0.00012692 4.07995618 4.08000019
Au 12.23999965 6.11999818 6.12000147
Au 2.03997098 4.07996376 6.11994984
Au 2.03991434 6.12000876 4.08005374
Au 12.23996751 4.07996515 8.15998054
Au 12.23997215 6.11991577 10.20007516
Au 2.04002277 4.07995654 10.20001507
Au 2.03997340 6.11998468 8.16001883
Au 0.00005169 8.16008209 0.00009423
Au 12.23998407 10.19996847 2.04000395
Au 2.04000529 8.15995527 2.03996344
Au 2.04004383 10.20008897 12.23998561
Au 12.23996161 8.15998064 4.07994236
Au 12.23998272 10.20002036 6.11999377
Au 2.04006754 8.16000508 6.12002542
Au 2.03998970 10.20007062 4.07992957
Au 12.23998099 8.15993055 8.16004484
Au 0.00004592 10.19996757 10.20009165
Au 2.03998135 8.15991875 10.19998253
Au 2.04001833 10.19998340 8.16012583
Au 4.08004620 0.00009400 0.00007633
Au 4.07990322 2.03997533 2.03984483
Au 6.11996170 0.00005933 2.03995091
Au 6.11996225 2.04001494 0.00004265
Au 4.07997802 12.23998219 4.08004387
Au 4.08001237 2.03998053 6.12001605
Au 6.12000235 0.00001091 6.12011096
Au 6.11998090 2.03996622 4.08007789
Au 4.07995836 0.00009336 8.15998743
Au 4.08000223 2.04003787 10.20006661
Au 6.12005417 12.23998513 10.19997773
Au 6.12001762 2.04000417 8.15996221
Au 4.08002118 4.08005252 0.00000772
Au 4.08008607 6.12001967 2.03998958
Au 6.12000371 4.07996507 2.03994032
Au 6.12002488 6.11994858 12.23997819
Au 4.07999305 4.08001826 4.08002430
Au 4.08000112 6.11988792 6.11998673
Au 6.11995443 4.07999032 6.12005413
Au 6.12004336 6.12000898 4.08002681
Au 4.07991432 4.08000755 8.16003349
Au 4.07995834 6.12001937 10.19997692
Au 6.12005437 4.08005895 10.19996826
Au 6.12008039 6.11998589 8.16011437
Au 4.07997041 8.16000017 0.00001035
Au 4.07995583 10.19989950 2.03995336
Au 6.12005882 8.15997809 2.03997997
Au 6.12008342 10.20002436 0.00003787
Au 4.08004587 8.15994553 4.08000537
Au 4.08000652 10.19998765 6.11993685
Au 6.12002417 8.15990327 6.11994562
Au 6.11995253 10.19997340 4.08004568
Au 4.08009129 8.16009350 8.16004372
Au 4.08002281 10.19986512 10.20006194
Au 6.12014600 8.16002207 10.20001152
Au 6.12003739 10.20003758 8.16000594
Au 8.15997704 0.00001694 12.23992116
Au 8.15989215 2.04007316 2.03997258
Au 10.20003836 0.00008406 2.04006701
Au 10.19996693 2.04001486 12.23993274
Au 8.15999219 0.00005544 4.08000015
Au 8.15983763 2.03986991 6.11995325
Au 10.20007309 0.00000779 6.12000630
Au 10.19992403 2.04000483 4.07987033
Au 8.16001731 0.00006294 8.15995235
Au 8.16005909 2.03995608 10.20000664
Au 10.19999042 0.00000187 10.20008427
Au 10.20004766 2.03995845 8.15984278
Au 8.16004842 4.08003957 0.00000766
Au 8.15996666 6.12008653 2.03989779
Au 10.19995394 4.07991408 2.04001924
Au 10.19997182 6.12011538 12.23999935
Au 8.15998463 4.08002881 4.07995715
Au 8.15993708 6.12002669 6.11997084
Au 10.20005299 4.08001542 6.12000490
Au 10.20000192 6.11999173 4.08002128
Au 8.15997572 4.07988643 8.16000273
Au 8.15997216 6.11991911 10.20004228
Au 10.19997668 4.07989839 10.19999414
Au 10.19996010 6.11990085 8.16001592
Au 8.15993896 8.16003701 12.23994785
Au 8.16005305 10.20002052 2.04000446
Au 10.19995554 8.16004750 2.04002669
Au 10.19997768 10.20002926 12.23994064
Au 8.15992606 8.15999121 4.08000235
Au 8.16002215 10.20000025 6.12006816
Au 10.19992546 8.16002857 6.12001105
Au 10.20007438 10.20000362 4.08001615
Au 8.16009717 8.16004139 8.16003259
Au 8.15997612 10.20000441 10.19990537
Au 10.19995060 8.16003299 10.19989824
Au 10.20000330 10.19999759 8.16002024
108
Step=60 Lattice="12.24 0 0  0 12.24 0  0 0 12.24" Properties=species:S:1:pos:R:3
Au 12.23993090 12.23997107 0.00008498
Au 0.00001078 2.04005804 2.04003699
Au 2.03995471 0.00003250 2.03997664
Au 2.03997592 2.04000247 12.23989499
Au 0.00007818 12.23995059 4.08006556
Au 0.00000689 2.04009935 6.11995346
Au 2.03997663 0.00001871 6.11984897
Au 2.04005359 2.04010000 4.08007410
Au 0.00004865 12.23998605 8.16008458
Au 0.00007021 2.04002241 10.19999837
Au 2.03997326 12.23991284 10.20008082
Au 2.03985103 2.03997091 8.16000912
Au 0.00005575 4.08011485 0.00006509
Au 12.23997800 6.12004507 2.03991284
Au 2.04009424 4.07998534 2.03995253
Au 2.03995454 6.11999176 12.23997150
Au 0.00015230 4.07994741 4.08000022
Au 12.23999958 6.11999781 6.12000176
Au 2.03996517 4.07995651 6.11993981
Au 2.03989720 6.12001051 4.08006449
Au 12.23996102 4.07995819 8.15997665
Au 12.23996658 6.11989893 10.20009020
Au 2.04002733 4.07994785 10.20001809
Au 2.03996808 6.11998161 8.16002260
Au 0.00006203 8.16009850 0.00011307
Au 12.23998088 10.19996216 2.04000475
Au 2.04000635 8.15994633 2.03995613
Au 2.04005260 10.20010676 12.23998273
Au 12.23995393 8.15997677 4.07993083
Au 12.23997926 10.20002443 6.11999253
Au 2.04008105 8.16000609 6.12003051
Au 2.03998764 10.20008474 4.07991549
Au 12.23997719 8.15991666 8.16005381
Au 0.00005510 10.19996108 10.20010998
Au 2.03997762 8.15990250 10.19997903
Au 2.04002199 10.19998008 8.16015099
Au 4.08005544 0.00011280 0.00009160
Au 4.07988386 2.03997040 2.03981379
Au 6.11995404 0.00007120 2.03994109
Au 6.11995470 2.04001792 0.00005118
Au 4.07997363 12.23997863 4.08005264
Au 4.08001484 2.03997664 6.12001926
Au 6.12000283 0.00001310 6.12013315
Au 6.11997708 2.03995946 4.08009347
Au 4.07995004 0.00011203 8.15998491
Au 4.08000267 2.04004544 10.20007993
Au 6.12006500 12.23998215 10.19997328
Au 6.12002115 2.04000500 8.15995466
Au 4.08002542 4.08006303 0.00000926
Au 4.08010329 6.12002361 2.03998750
Au 6.12000445 4.07995808 2.03992839
Au 6.12002986 6.11993829 12.23997383
Au 4.07999166 4.08002191 4.08002916
Au 4.08000135 6.11986550 6.11998407
Au 6.11994532 4.07998839 6.12006496
Au 6.12005203 6.12001078 4.08003217
Au 4.07989719 4.08000906 8.16004019
Au 4.07995001 6.12002325 10.19997231
Au 6.12006524 4.08007075 10.19996191
Au 6.12009646 6.11998307 8.16013725
Au 4.07996450 8.16000021 0.00001242
Au 4.07994699 10.19987941 2.03994403
Au 6.12007058 8.15997371 2.03997596
Au 6.12010010 10.20002923 0.00004544
Au 4.08005504 8.15993463 4.08000644
Au 4.08000783 10.19998518 6.11992422
Au 6.12002900 8.15988392 6.11993475
Au 6.11994304 10.19996808 4.08005481
Au 4.08010955 8.16011220 8.16005246
Au 4.08002738 10.19983814 10.20007433
Au 6.12017519 8.16002648 10.20001382
Au 6.12004486 10.20004510 8.16000713
Au 8.15997245 0.00002033 12.23990540
Au 8.15987058 2.04008780 2.03996709
Au 10.20004603 0.00010087 2.04008042
Au 10.19996032 2.04001783 12.23991929
Au 8.15999063 0.00006653 4.08000018
Au 8.15980516 2.03984390 6.11994390
Au 10.20008771 0.00000935 6.12000756
Au 10.19990883 2.04000579 4.07984440
Au 8.16002077 0.00007553 8.15994282
Au 8.16007091 2.03994730 10.20000797
Au 10.19998851 0.00000224 10.20010112
Au 10.20005719 2.03995014 8.15981133
Au 8.16005810 4.08004748 0.00000920
Au 8.15996000 6.12010383 2.03987735
Au 10.19994472 4.07989690 2.04002309
Au 10.19996619 6.12013845 12.23999922
Au 8.15998156 4.08003457 4.07994858
Au 8.15992450 6.12003203 6.11996500
Au 10.20006359 4.08001851 6.12000588
Au 10.20000231 6.11999008 4.08002554
Au 8.15997087 4.07986372 8.16000328
Au 8.15996659 6.11990293 10.20005074
Au 10.19997201 4.07987806 10.19999297
Au 10.19995213 6.11988101 8.16001910
Au 8.15992675 8.16004441 12.23993742
Au 8.16006366 10.20002463 2.04000535
Au 10.19994665 8.16005700 2.04003202
Au 10.19997322 10.20003511 12.23992877
Au 8.15991128 8.15998945 4.08000282
Au 8.16002658 10.20000030 6.12008180
Au 10.19991055 8.16003428 6.12001326
Au 10.20008926 10.20000434 4.08001938
Au 8.16011661 8.16004967 8.16003911
Au 8.15997134 10.20000529 10.19988645
Au 10.19994072 8.16003959 10.19987789
Au 10.20000396 10.19999711 8.16002429
108
Step=70 Lattice="12.24 0 0  0 12.24 0  0 0 12.24" Properties=species:S:1:pos:R:3
Au 12.23991938 12.23996625 0.00009915
Au 0.00001258 2.04006771 2.04004315
Au 2.03994716 0.00003791 2.03997275
Au 2.03997190 2.04000288 12.23987749
Au 0.00009121 12.23994236 4.08007649
Au 0.00000804 2.04011591 6.11994570
Au 2.03997274 0.00002183 6.11982380
Au 2.04006252 2.04011666 4.08008645
Au 0.00005676 12.23998372 8.16009867
Au 0.00008191 2.04002615 10.19999809
Au 2.03996880 12.23989831 10.20009429
Au 2.03982620 2.03996606 8.16001064
Au 0.00006504 4.08013400 0.00007594
Au 12.23997433 6.12005258 2.03989831
Au 2.04010994 4.07998290 2.03994462
Au 2.03994696 6.11999039 12.23996675
Au 0.00017769 4.07993865 4.08000026
Au 12.23999951 6.11999745 6.12000205
Au 2.03995937 4.07994926 6.11992978
Au 2.03988007 6.12001226 4.08007524
Au 12.23995452 4.07995122 8.15997276
Au 12.23996101 6.11988208 10.20010523
Au 2.04003188 4.07993916 10.20002110
Au 2.03996276 6.11997855 8.16002636
Au 0.00007237 8.16011492 0.00013192
Au 12.23997770 10.19995585 2.04000554
Au 2.04000741 8.15993738 2.03994881
Au 2.04006137 10.20012455 12.23997985
Au 12.23994626 8.15997290 4.07991930
Au 12.23997580 10.20002850 6.11999128
Au 2.04009455 8.16000711 6.12003559
Au 2.03998558 10.20009886 4.07990140
Au 12.23997338 8.15990276 8.16006278
Au 0.00006428 10.19995459 10.20012831
Au 2.03997389 8.15988625 10.19997554
Au 2.04002566 10.19997676 8.16017616
Au 4.08006468 0.00013160 0.00010686
Au 4.07986450 2.03996546 2.03978276
Au 6.11994638 0.00008306 2.03993127
Au 6.11994715 2.04002091 0.00005971
Au 4.07996923 12.23997507 4.08006142
Au 4.08001731 2.03997275 6.12002247
Au 6.12000330 0.00001528 6.12015534