108
Step=0 Lattice="10.845 0 0  0 10.845 0  0 0 10.845" Properties=species:S:1:pos:R:3
Cu 0.90375000 0.90375000 0.90375000
Cu 0.90375000 2.71125000 2.71125000
Cu 2.71125000 0.90375000 2.71125000
Cu 2.71125000 2.71125000 0.90375000
Cu 0.90375000 0.90375000 4.51875000
Cu 0.90375000 2.71125000 6.32625000
Cu 2.71125000 0.90375000 6.32625000
Cu 2.71125000 2.71125000 4.51875000
Cu 0.90375000 0.90375000 8.13375000
Cu 0.90375000 2.71125000 9.94125000
Cu 2.71125000 0.90375000 9.94125000
Cu 2.71125000 2.71125000 8.13375000
Cu 0.90375000 4.51875000 0.90375000
Cu 0.90375000 6.32625000 2.71125000
Cu 2.71125000 4.51875000 2.71125000
Cu 2.71125000 6.32625000 0.90375000
Cu 0.90375000 4.51875000 4.51875000
Cu 0.90375000 6.32625000 6.32625000
Cu 2.71125000 4.51875000 6.32625000
Cu 2.71125000 6.32625000 4.51875000
Cu 0.90375000 4.51875000 8.13375000
Cu 0.90375000 6.32625000 9.94125000
Cu 2.71125000 4.51875000 9.94125000
Cu 2.71125000 6.32625000 8.13375000
Cu 0.90375000 8.13375000 0.90375000
Cu 0.90375000 9.94125000 2.71125000
Cu 2.71125000 8.13375000 2.71125000
Cu 2.71125000 9.94125000 0.90375000
Cu 0.90375000 8.13375000 4.51875000
Cu 0.90375000 9.94125000 6.32625000
Cu 2.71125000 8.13375000 6.32625000
Cu 2.71125000 9.94125000 4.51875000
Cu 0.90375000 8.13375000 8.13375000
Cu 0.90375000 9.94125000 9.94125000
Cu 2.71125000 8.13375000 9.94125000
Cu 2.71125000 9.94125000 8.13375000
Cu 4.51875000 0.90375000 0.90375000
Cu 4.51875000 2.71125000 2.71125000
Cu 6.32625000 0.90375000 2.71125000
Cu 6.32625000 2.71125000 0.90375000
Cu 4.51875000 0.90375000 4.51875000
Cu 4.51875000 2.71125000 6.32625000
Cu 6.32625000 0.90375000 6.32625000
Cu 6.32625000 2.71125000 4.51875000
Cu 4.51875000 0.90375000 8.13375000
Cu 4.51875000 2.71125000 9.94125000
Cu 6.32625000 0.90375000 9.94125000
Cu 6.32625000 2.71125000 8.13375000
Cu 4.51875000 4.51875000 0.90375000
Cu 4.51875000 6.32625000 2.71125000
Cu 6.32625000 4.51875000 2.71125000
Cu 6.32625000 6.32625000 0.90375000
Cu 4.51875000 4.51875000 4.51875000
Cu 4.51875000 6.32625000 6.32625000
Cu 6.32625000 4.51875000 6.32625000
Cu 6.32625000 6.32625000 4.51875000
Cu 4.51875000 4.51875000 8.13375000
Cu 4.51875000 6.32625000 9.94125000
Cu 6.32625000 4.51875000 9.94125000
Cu 6.32625000 6.32625000 8.13375000
Cu 4.51875000 8.13375000 0.90375000
Cu 4.51875000 9.94125000 2.71125000
Cu 6.32625000 8.13375000 2.71125000
Cu 6.32625000 9.94125000 0.90375000
Cu 4.51875000 8.13375000 4.51875000
Cu 4.51875000 9.94125000 6.32625000
Cu 6.32625000 8.13375000 6.32625000
Cu 6.32625000 9.94125000 4.51875000
Cu 4.51875000 8.13375000 8.13375000
Cu 4.51875000 9.94125000 9.94125000
Cu 6.32625000 8.13375000 9.94125000
Cu 6.32625000 9.94125000 8.13375000
Cu 8.13375000 0.90375000 0.90375000
Cu 8.13375000 2.71125000 2.71125000
Cu 9.94125000 0.90375000 2.71125000
Cu 9.94125000 2.71125000 0.90375000
Cu 8.13375000 0.90375000 4.51875000
Cu 8.13375000 2.71125000 6.32625000
Cu 9.94125000 0.90375000 6.32625000
Cu 9.94125000 2.71125000 4.51875000
Cu 8.13375000 0.90375000 8.13375000
Cu 8.13375000 2.71125000 9.94125000
Cu 9.94125000 0.90375000 9.94125000
Cu 9.94125000 2.71125000 8.13375000
Cu 8.13375000 4.51875000 0.90375000
Cu 8.13375000 6.32625000 2.71125000
Cu 9.94125000 4.51875000 2.71125000
Cu 9.94125000 6.32625000 0.90375000
Cu 8.13375000 4.51875000 4.51875000
Cu 8.13375000 6.32625000 6.32625000
Cu 9.94125000 4.51875000 6.32625000
Cu 9.94125000 6.32625000 4.51875000
Cu 8.13375000 4.51875000 8.13375000
Cu 8.13375000 6.32625000 9.94125000
Cu 9.94125000 4.51875000 9.94125000
Cu 9.94125000 6.32625000 8.13375000
Cu 8.13375000 8.13375000 0.90375000
Cu 8.13375000 9.94125000 2.71125000
Cu 9.94125000 8.13375000 2.71125000
Cu 9.94125000 9.94125000 0.90375000
Cu 8.13375000 8.13375000 4.51875000
Cu 8.13375000 9.94125000 6.32625000
Cu 9.94125000 8.13375000 6.32625000
Cu 9.94125000 9.94125000 4.51875000
Cu 8.13375000 8.13375000 8.13375000
Cu 8.13375000 9.94125000 9.94125000
Cu 9.94125000 8.13375000 9.94125000
Cu 9.94125000 9.94125000 8.13375000
108
Step=1 Lattice="10.845 0 0  0 10.845 0  0 0 10.845" Properties=species:S:1:pos:R:3
Cu 0.90374797 0.90374915 0.90375249
Cu 0.90375032 2.71125170 2.71125109
Cu 2.71124867 0.90375095 2.71124931
Cu 2.71124929 2.71125007 0.90374692
Cu 0.90375229 0.90374855 4.51875192
Cu 0.90375020 2.71125292 6.32624863
Cu 2.71124931 0.90375055 6.32624557
Cu 2.71125157 2.71125293 4.51875217
Cu 0.90375143 0.90374959 8.13375248
Cu 0.90375206 2.71125066 9.94124995
Cu 2.71124922 0.90374744 9.94125237
Cu 2.71124563 2.71124915 8.13375027
Cu 0.90375164 4.51875337 0.90375191
Cu 0.90374935 6.32625132 2.71124744
Cu 2.71125277 4.51874957 2.71124861
Cu 2.71124867 6.32624976 0.90374916
Cu 0.90375447 4.51874846 4.51875001
Cu 0.90374999 6.32624994 6.32625005
Cu 2.71124898 4.51874872 6.32624823
Cu 2.71124698 6.32625031 4.51875189
Cu 0.90374886 4.51874877 8.13374931
Cu 0.90374902 6.32624703 9.94125265
Cu 2.71125080 4.51874847 9.94125053
Cu 2.71124906 6.32624946 8.13375066
Cu 0.90375182 8.13375289 0.90375332
Cu 0.90374944 9.94124889 2.71125014
Cu 2.71125019 8.13374843 2.71124871
Cu 2.71125154 9.94125313 0.90374949
Cu 0.90374865 8.13374932 4.51874797
Cu 0.90374939 9.94125072 6.32624978
Cu 2.71125238 8.13375018 6.32625090
Cu 2.71124964 9.94125249 4.51874752
Cu 0.90374933 8.13374755 8.13375158
Cu 0.90375162 9.94124886 9.94125323
Cu 2.71124934 8.13374714 9.94124938
Cu 2.71125065 9.94124942 8.13375443
Cu 4.51875163 0.90375331 0.90375269
Cu 4.51874659 2.71124913 2.71124454
Cu 6.32624865 0.90375209 2.71124827
Cu 6.32624867 2.71125053 0.90375150
Cu 4.51874923 0.90374937 4.51875154
Cu 4.51875044 2.71124931 6.32625057
Cu 6.32625008 0.90375038 6.32625391
Cu 6.32624933 2.71124881 4.51875274
Cu 4.51874853 0.90375329 8.13374956
Cu 4.51875008 2.71125133 9.94125235
Cu 6.32625191 0.90374948 9.94124922
Cu 6.32625062 2.71125015 8.13374867
Cu 4.51875075 4.51875185 0.90375027
Cu 4.51875303 6.32625069 2.71124963
Cu 6.32625013 4.51874877 2.71124790
Cu 6.32625088 6.32624819 0.90374923
Cu 4.51874976 4.51875064 4.51875086
Cu 4.51875004 6.32624605 6.32624953
Cu 6.32624840 4.51874966 6.32625191
Cu 6.32625153 6.32625032 4.51875094
Cu 4.51874698 4.51875027 8.13375118
Cu 4.51874853 6.32625068 9.94124919
Cu 6.32625191 4.51875208 9.94124888
Cu 6.32625283 6.32624950 8.13375403
Cu 4.51874896 8.13375001 0.90375036
Cu 4.51874844 9.94124646 2.71124836
Cu 6.32625207 8.13374923 2.71124929
Cu 6.32625294 9.94125086 0.90375133
Cu 4.51875162 8.13374808 4.51875019
Cu 4.51875023 9.94124957 6.32624778
Cu 6.32625085 8.13374659 6.32624809
Cu 6.32624833 9.94124906 4.51875161
Cu 4.51875321 8.13375329 8.13375154
Cu 4.51875080 9.94124525 9.94125218
Cu 6.32625514 8.13375078 9.94125041
Cu 6.32625132 9.94125132 8.13375021
Cu 8.13374919 0.90375060 0.90374722
Cu 8.13374620 2.71125258 2.71124903
Cu 9.94125135 0.90375296 2.71125236
Cu 9.94124884 2.71125052 0.90374763
Cu 8.13374972 0.90375195 4.51875001
Cu 8.13374428 2.71124542 6.32624835
Cu 9.94125257 0.90375027 6.32625022
Cu 9.94124732 2.71125017 4.51874543
Cu 8.13375061 0.90375222 8.13374832
Cu 8.13375208 2.71124845 9.94125023
Cu 9.94124966 0.90375007 9.94125297
Cu 9.94125168 2.71124854 8.13374446
Cu 8.13375170 4.51875139 0.90375027
Cu 8.13374883 6.32625305 2.71124640
Cu 9.94124838 4.51874697 2.71125068
Cu 9.94124901 6.32625406 0.90374998
Cu 8.13374946 4.51875101 4.51874849
Cu 8.13374778 6.32625094 6.32624897
Cu 9.94125187 4.51875054 6.32625017
Cu 9.94125007 6.32624971 4.51875075
Cu 8.13374915 4.51874600 8.13375010
Cu 8.13374902 6.32624715 9.94125149
Cu 9.94124918 4.51874642 9.94124979
Cu 9.94124860 6.32624651 8.13375056
Cu 8.13374785 8.13375130 0.90374816
Cu 8.13375187 9.94125072 2.71125016
Cu 9.94124843 8.13375167 2.71125094
Cu 9.94124921 9.94125103 0.90374791
Cu 8.13374740 8.13374969 4.51875008
Cu 8.13375078 9.94125001 6.32625240
Cu 9.94124738 8.13375101 6.32625039
Cu 9.94125262 9.94125013 4.51875057
Cu 8.13375342 8.13375146 8.13375115
Cu 8.13374916 9.94125016 9.94124667
Cu 9.94124826 8.13375116 9.94124642
Cu 9.94125012 9.94124992 8.13375071
108
Step=2 Lattice="10.845 0 0  0 10.845 0  0 0 10.845" Properties=species:S:1:pos:R:3
Cu 0.90374594 0.90374830 0.90375499
Cu 0.90375063 2.71125341 2.71125217
Cu 2.71124734 0.90375191 2.71124863
Cu 2.71124859 2.71125014 0.90374384
Cu 0.90375459 0.90374710 4.51875385
Cu 0.90375040 2.71125583 6.32624727
Cu 2.71124863 0.90375110 6.32624114
Cu 2.71125315 2.71125587 4.51875435
Cu 0.90375286 0.90374918 8.13375496
Cu 0.90375412 2.71125132 9.94124990
Cu 2.71124843 0.90374488 9.94125474
Cu 2.71124126 2.71124829 8.13375054
Cu 0.90375327 4.51875674 0.90375382
Cu 0.90374871 6.32625265 2.71124488
Cu 2.71125553 4.51874914 2.71124721
Cu 2.71124733 6.32624952 0.90374833
Cu 0.90375894 4.51874691 4.51875001
Cu 0.90374998 6.32624987 6.32625010
Cu 2.71124796 4.51874745 6.32624647
Cu 2.71124397 6.32625062 4.51875379
Cu 0.90374771 4.51874755 8.13374863
Cu 0.90374804 6.32624407 9.94125529
Cu 2.71125160 4.51874694 9.94125106
Cu 2.71124813 6.32624892 8.13375133
Cu 0.90375364 8.13375578 0.90375664
Cu 0.90374888 9.94124778 2.71125028
Cu 2.71125037 8.13374685 2.71124742
Cu 2.71125309 9.94125627 0.90374899
Cu 0.90374730 8.13374864 4.51874594
Cu 0.90374878 9.94125143 6.32624956
Cu 2.71125476 8.13375036 6.32625179
Cu 2.71124927 9.94125497 4.51874504
Cu 0.90374866 8.13374511 8.13375316
Cu 0.90375323 9.94124772 9.94125646
Cu 2.71124869 8.13374428 9.94124877
Cu 2.71125129 9.94124883 8.13375886
Cu 4.51875325 0.90375662 0.90375538
Cu 4.51874318 2.71124826 2.71123907
Cu 6.32624730 0.90375418 2.71124654
Cu 6.32624734 2.71125105 0.90375300
Cu 4.51874845 0.90374875 4.51875309
Cu 4.51875087 2.71124863 6.32625113
Cu 6.32625017 0.90375077 6.32625782
Cu 6.32624865 2.71124762 4.51875549
Cu 4.51874707 0.90375658 8.13374911
Cu 4.51875016 2.71125267 9.94125469
Cu 6.32625382 0.90374895 9.94124843
Cu 6.32625124 2.71125029 8.13374734
Cu 4.51875149 4.51875370 0.90375054
Cu 4.51875606 6.32625139 2.71124927
Cu 6.32625026 4.51874754 2.71124580
Cu 6.32625175 6.32624638 0.90374846
Cu 4.51874951 4.51875129 4.51875171
Cu 4.51875008 6.32624211 6.32624907
Cu 6.32624679 4.51874932 6.32625381
Cu 6.32625305 6.32625063 4.51875189
Cu 4.51874397 4.51875053 8.13375236
Cu 4.51874707 6.32625136 9.94124837
Cu 6.32625383 4.51875415 9.94124776
Cu 6.32625566 6.32624901 8.13375806
Cu 4.51874792 8.13375001 0.90375073
Cu 4.51874689 9.94124292 2.71124671
Cu 6.32625414 8.13374846 2.71124859
Cu 6.32625588 9.94125172 0.90375267
Cu 4.51875323 8.13374616 4.51875038
Cu 4.51875046 9.94124913 6.32624555
Cu 6.32625170 8.13374319 6.32624617
Cu 6.32624666 9.94124813 4.51875322
Cu 4.51875643 8.13375659 8.13375308
Cu 4.51875161 9.94124050 9.94125436
Cu 6.32626028 8.13375155 9.94125081
Cu 6.32625263 9.94125265 8.13375042
Cu 8.13374838 0.90375119 0.90374445
Cu 8.13374240 2.71125515 2.71124807
Cu 9.94125270 0.90375592 2.71125472
Cu 9.94124767 2.71125105 0.90374526
Cu 8.13374945 0.90375391 4.51875001
Cu 8.13373856 2.71124084 6.32624671
Cu 9.94125515 0.90375055 6.32625044
Cu 9.94124465 2.71125034 4.51874087
Cu 8.13375122 0.90375443 8.13374664
Cu 8.13375416 2.71124691 9.94125047
Cu 9.94124933 0.90375013 9.94125594
Cu 9.94125336 2.71124707 8.13373893
Cu 8.13375341 4.51875279 0.90375054
Cu 8.13374765 6.32625609 2.71124280
Cu 9.94124676 4.51874395 2.71125136
Cu 9.94124802 6.32625813 0.90374995
Cu 8.13374892 4.51875203 4.51874698
Cu 8.13374557 6.32625188 6.32624795
Cu 9.94125373 4.51875109 6.32625035
Cu 9.94125014 6.32624942 4.51875150
Cu 8.13374829 4.51874200 8.13375019
Cu 8.13374804 6.32624430 9.94125298
Cu 9.94124836 4.51874284 9.94124959
Cu 9.94124719 6.32624302 8.13375112
Cu 8.13374570 8.13375261 0.90374633
Cu 8.13375374 9.94125145 2.71125031
Cu 9.94124687 8.13375335 2.71125188
Cu 9.94124843 9.94125206 0.90374582
Cu 8.13374479 8.13374938 4.51875017
Cu 8.13375156 9.94125002 6.32625480
Cu 9.94124475 8.13375201 6.32625078
Cu 9.94125524 9.94125025 4.51875114
Cu 8.13375684 8.13375292 8.13375230
Cu 8.13374832 9.94125031 9.94124334
Cu 9.94124652 8.13375232 9.94124283
Cu 9.94125023 9.94124983 8.13375143
108
Step=3 Lattice="10.845 0 0  0 10.845 0  0 0 10.845" Properties=species:S:1:pos:R:3
Cu 0.90374392 0.90374745 0.90375748
Cu 0.90375095 2.71125511 2.71125326
Cu 2.71124601 0.90375286 2.71124794
Cu 2.71124788 2.71125022 0.90374075
Cu 0.90375688 0.90374565 4.51875577
Cu 0.90375061 2.71125875 6.32624590
Cu 2.71124794 0.90375165 6.32623670
Cu 2.71125472 2.71125881 4.51875653
Cu 0.90375428 0.90374877 8.13375745
Cu 0.90375618 2.71125197 9.94124986
Cu 2.71124765 0.90374232 9.94125712
Cu 2.71123688 2.71124744 8.13375080
Cu 0.90375491 4.51876011 0.90375573
Cu 0.90374806 6.32625397 2.71124232
Cu 2.71125830 4.51874871 2.71124582
Cu 2.71124600 6.32624927 0.90374749
Cu 0.90376341 4.51874537 4.51875002
Cu 0.90374996 6.32624981 6.32625015
Cu 2.71124693 4.51874617 6.32624470
Cu 2.71124095 6.32625093 4.51875568
Cu 0.90374657 4.51874632 8.13374794
Cu 0.90374706 6.32624110 9.94125794
Cu 2.71125241 4.51874541 9.94125159
Cu 2.71124719 6.32624838 8.13375199
Cu 0.90375546 8.13375867 0.90375996
Cu 0.90374832 9.94124667 2.71125042
Cu 2.71125056 8.13374527 2.71124614
Cu 2.71125463 9.94125940 0.90374848
Cu 0.90374594 8.13374795 4.51874391
Cu 0.90374817 9.94125215 6.32624934
Cu 2.71125714 8.13375054 6.32625269
Cu 2.71124891 9.94125746 4.51874256
Cu 0.90374799 8.13374266 8.13375474
Cu 0.90375485 9.94124657 9.94125968
Cu 2.71124803 8.13374141 9.94124815
Cu 2.71125194 9.94124825 8.13376330
Cu 4.51875488 0.90375993 0.90375807
Cu 4.51873977 2.71124739 2.71123360
Cu 6.32624595 0.90375627 2.71124481
Cu 6.32624601 2.71125158 0.90375451
Cu 4.51874768 0.90374812 4.51875464
Cu 4.51875131 2.71124794 6.32625170
Cu 6.32625025 0.90375115 6.32626172
Cu 6.32624798 2.71124643 4.51875823
Cu 4.51874560 0.90375987 8.13374867
Cu 4.51875024 2.71125400 9.94125704
Cu 6.32625572 0.90374843 9.94124765
Cu 6.32625186 2.71125044 8.13374601
Cu 4.51875224 4.51875555 0.90375082
Cu 4.51875910 6.32625208 2.71124890
Cu 6.32625039 4.51874631 2.71124369
Cu 6.32625263 6.32624457 0.90374770
Cu 4.51874927 4.51875193 4.51875257
Cu 4.51875012 6.32623816 6.32624860
Cu 6.32624519 4.51874898 6.32625572
Cu 6.32625458 6.32625095 4.51875283
Cu 4.51874095 4.51875080 8.13375354
Cu 4.51874560 6.32625205 9.94124756
Cu 6.32625575 4.51875623 9.94124665
Cu 6.32625849 6.32624851 8.13376209
Cu 4.51874687 8.13375002 0.90375109
Cu 4.51874533 9.94123938 2.71124507
Cu 6.32625622 8.13374769 2.71124788
Cu 6.32625881 9.94125257 0.90375400
Cu 4.51875485 8.13374424 4.51875057
Cu 4.51875069 9.94124869 6.32624333
Cu 6.32625255 8.13373978 6.32624425
Cu 6.32624498 9.94124719 4.51875483
Cu 4.51875965 8.13375988 8.13375462
Cu 4.51875241 9.94123575 9.94125655
Cu 6.32626543 8.13375233 9.94125122
Cu 6.32625395 9.94125397 8.13375063
Cu 8.13374757 0.90375179 0.90374167
Cu 8.13373860 2.71125773 2.71124710
Cu 9.94125405 0.90375888 2.71125708
Cu 9.94124651 2.71125157 0.90374289
Cu 8.13374917 0.90375586 4.51875002
Cu 8.13373284 2.71123625 6.32624506
Cu 9.94125772 0.90375082 6.32625067
Cu 9.94124197 2.71125051 4.51873630
Cu 8.13375183 0.90375665 8.13374496
Cu 8.13375624 2.71124536 9.94125070
Cu 9.94124899 0.90375020 9.94125890
Cu 9.94125504 2.71124561 8.13373339
Cu 8.13375512 4.51875418 0.90375081
Cu 8.13374648 6.32625914 2.71123920
Cu 9.94124513 4.51874092 2.71125203
Cu 9.94124702 6.32626219 0.90374993
Cu 8.13374838 4.51875304 4.51874547
Cu 8.13374335 6.32625282 6.32624692
Cu 9.94125560 4.51875163 6.32625052
Cu 9.94125020 6.32624913 4.51875225
Cu 8.13374743 4.51873800 8.13375029
Cu 8.13374706 6.32624145 9.94125447
Cu 9.94124754 4.51873926 9.94124938
Cu 9.94124578 6.32623952 8.13375168
Cu 8.13374355 8.13375391 0.90374449
Cu 8.13375561 9.94125217 2.71125047
Cu 9.94124530 8.13375502 2.71125282
Cu 9.94124764 9.94125309 0.90374373
Cu 8.13374219 8.13374907 4.51875025
Cu 8.13375234 9.94125003 6.32625720
Cu 9.94124212 8.13375302 6.32625117
Cu 9.94125786 9.94125038 4.51875171
Cu 8.13376027 8.13375437 8.13375344
Cu 8.13374748 9.94125047 9.94124000
Cu 9.94124478 8.13375349 9.94123925
Cu 9.94125035 9.94124975 8.13375214
108
Step=4 Lattice="10.845 0 0  0 10.845 0  0 0 10.845" Properties=species:S:1:pos:R:3
Cu 0.90374189 0.90374660 0.90375998
Cu 0.90375127 2.71125682 2.71125434
Cu 2.71124468 0.90375382 2.71124726
Cu 2.71124717 2.71125029 0.90373767
Cu 0.90375918 0.90374420 4.51875770
Cu 0.90375081 2.71126167 6.32624453
Cu 2.71124726 0.90375220 6.32623226
Cu 2.71125629 2.71126174 4.51875870
Cu 0.90375571 0.90374836 8.13375993
Cu 0.90375824 2.71125263 9.94124981
Cu 2.71124686 0.90373976 9.94125949
Cu 2.71123251 2.71124658 8.13375107
Cu 0.90375655 4.51876349 0.90375764
Cu 0.90374742 6.32625529 2.71123976
Cu 2.71126107 4.51874828 2.71124443
Cu 2.71124466 6.32624903 0.90374665
Cu 0.90376789 4.51874382 4.51875003
Cu 0.90374995 6.32624974 6.32625021
Cu 2.71124591 4.51874489 6.32624293
Cu 2.71123793 6.32625123 4.51875757
Cu 0.90374542 4.51874509 8.13374726
Cu 0.90374608 6.32623813 9.94126059
Cu 2.71125321 4.51874388 9.94125212
Cu 2.71124625 6.32624784 8.13375265
Cu 0.90375728 8.13376157 0.90376328
Cu 0.90374776 9.94124556 2.71125056
Cu 2.71125075 8.13374370 2.71124485
Cu 2.71125618 9.94126254 0.90374797
Cu 0.90374459 8.13374727 4.51874188
Cu 0.90374756 9.94125287 6.32624912
Cu 2.71125952 8.13375072 6.32625358
Cu 2.71124855 9.94125995 4.51874008
Cu 0.90374732 8.13374021 8.13375632
Cu 0.90375647 9.94124543 9.94126292
Cu 2.71124737 8.13373855 9.94124754
Cu 2.71125258 9.94124766 8.13376773
Cu 4.51875651 0.90376325 0.90376076
Cu 4.51873636 2.71124652 2.71122813
Cu 6.32624460 0.90375836 2.71124308
Cu 6.32624468 2.71125210 0.90375601
Cu 4.51874690 0.90374749 4.51875618
Cu 4.51875174 2.71124726 6.32625226
Cu 6.32625033 0.90375154 6.32626564
Cu 6.32624731 2.71124524 4.51876098
Cu 4.51874413 0.90376316 8.13374823
Cu 4.51875031 2.71125534 9.94125939
Cu 6.32625763 0.90374790 9.94124686
Cu 6.32625248 2.71125059 8.13374468
Cu 4.51875299 4.51875740 0.90375109
Cu 4.51876213 6.32625277 2.71124853
Cu 6.32625052 4.51874508 2.71124159
Cu 6.32625351 6.32624275 0.90374693
Cu 4.51874902 4.51875257 4.51875342
Cu 4.51875016 6.32623421 6.32624813
Cu 6.32624358 4.51874864 6.32625763
Cu 6.32625611 6.32625127 4.51875378
Cu 4.51873793 4.51875106 8.13375472
Cu 4.51874413 6.32625273 9.94124675
Cu 6.32625766 4.51875831 9.94124553
Cu 6.32626133 6.32624801 8.13376612
Cu 4.51874583 8.13375002 0.90375146
Cu 4.51874378 9.94123584 2.71124343
Cu 6.32625829 8.13374691 2.71124718
Cu 6.32626176 9.94125343 0.90375534
Cu 4.51875646 8.13374232 4.51875076
Cu 4.51875092 9.94124826 6.32624110
Cu 6.32625341 8.13373637 6.32624234
Cu 6.32624331 9.94124625 4.51875644
Cu 4.51876286 8.13376318 8.13375616
Cu 4.51875321 9.94123099 9.94125873
Cu 6.32627057 8.13375311 9.94125162
Cu 6.32625527 9.94125530 8.13375084
Cu 8.13374676 0.90375239 0.90373889
Cu 8.13373480 2.71126031 2.71124614
Cu 9.94125541 0.90376185 2.71125944
Cu 9.94124534 2.71125209 0.90374052
Cu 8.13374890 0.90375781 4.51875002
Cu 8.13372712 2.71123167 6.32624341
Cu 9.94126030 0.90375110 6.32625089
Cu 9.94123929 2.71125068 4.51873173
Cu 8.13375244 0.90375887 8.13374328
Cu 8.13375833 2.71124381 9.94125094
Cu 9.94124865 0.90375026 9.94126188
Cu 9.94125672 2.71124415 8.13372784
Cu 8.13375682 4.51875558 0.90375108
Cu 8.13374530 6.32626219 2.71123560
Cu 9.94124351 4.51873789 2.71125271
Cu 9.94124603 6.32626626 0.90374991
Cu 8.13374783 4.51875406 4.51874396
Cu 8.13374113 6.32625376 6.32624589
Cu 9.94125747 4.51875217 6.32625069
Cu 9.94125027 6.32624883 4.51875300
Cu 8.13374658 4.51873400 8.13375038
Cu 8.13374608 6.32623860 9.94125596
Cu 9.94124671 4.51873568 9.94124917
Cu 9.94124438 6.32623603 8.13375224
Cu 8.13374140 8.13375522 0.90374265
Cu 8.13375748 9.94125289 2.71125063
Cu 9.94124374 8.13375669 2.71125376
Cu 9.94124685 9.94125412 0.90374164
Cu 8.13373958 8.13374876 4.51875033
Cu 8.13375312 9.94125003 6.32625961
Cu 9.94123950 8.13375403 6.32625156
Cu 9.94126048 9.94125051 4.51875228
Cu 8.13376369 8.13375583 8.13375459
Cu 8.13374663 9.94125062 9.94123667
Cu 9.94124304 8.13375465 9.94123566
Cu 9.94125046 9.94124966 8.13375285
108
Step=5 Lattice="10.845 0 0  0 10.845 0  0 0 10.845" Properties=species:S:1:pos:R:3
Cu 0.90373985 0.90374575 0.90376248
Cu 0.90375158 2.71125852 2.71125543
Cu 2.71124335 0.90375477 2.71124657
Cu 2.71124646 2.71125036 0.90373458
Cu 0.90376148 0.90374275 4.51875963
Cu 0.90375101 2.71126459 6.32624317
Cu 2.71124657 0.90375275 6.32622783
Cu 2.71125787 2.71126468 4.51876088
Cu 0.90375714 0.90374795 8.13376242
Cu 0.90376031 2.71125329 9.94124976
Cu 2.71124607 0.90373720 9.94126187
Cu 2.71122813 2.71124573 8.13375134
Cu 0.90375818 4.51876686 0.90375956
Cu 0.90374677 6.32625662 2.71123720
Cu 2.71126384 4.51874785 2.71124303
Cu 2.71124333 6.32624879 0.90374582
Cu 0.90377236 4.51874228 4.51875003
Cu 0.90374994 6.32624968 6.32625026
Cu 2.71124489 4.51874362 6.32624116
Cu 2.71123491 6.32625154 4.51875947
Cu 0.90374428 4.51874386 8.13374657
Cu 0.90374509 6.32623516 9.94126324
Cu 2.71125401 4.51874234 9.94125266
Cu 2.71124531 6.32624730 8.13375332
Cu 0.90375911 8.13376446 0.90376660
Cu 0.90374719 9.94124444 2.71125070
Cu 2.71125093 8.13374212 2.71124356
Cu 2.71125772 9.94126567 0.90374746
Cu 0.90374324 8.13374659 4.51873984
Cu 0.90374696 9.94125359 6.32624890
Cu 2.71126190 8.13375089 6.32625448
Cu 2.71124819 9.94126244 4.51873759
Cu 0.90374665 8.13373776 8.13375790
Cu 0.90375809 9.94124429 9.94126615
Cu 2.71124671 8.13373569 9.94124692
Cu 2.71125323 9.94124708 8.13377217
Cu 4.51875814 0.90376656 0.90376345
Cu 4.51873295 2.71124565 2.71122266
Cu 6.32624325 0.90376045 2.71124135
Cu 6.32624335 2.71125263 0.90375751
Cu 4.51874613 0.90374686 4.51875773
Cu 4.51875218 2.71124657 6.32625283
Cu 6.32625041 0.90375192 6.32626955
Cu 6.32624663 2.71124405 4.51876372
Cu 4.51874266 0.90376645 8.13374778
Cu 4.51875039 2.71125667 9.94126174
Cu 6.32625954 0.90374738 9.94124608
Cu 6.32625310 2.71125073 8.13374334
Cu 4.51875373 4.51875925 0.90375136
Cu 4.51876516 6.32625347 2.71124816
Cu 6.32625065 4.51874385 2.71123949
Cu 6.32625438 6.32624094 0.90374616
Cu 4.51874878 4.51875322 4.51875428
Cu 4.51875020 6.32623025 6.32624766
Cu 6.32624197 4.51874829 6.32625954
Cu 6.32625764 6.32625158 4.51875472
Cu 4.51873491 4.51875133 8.13375590
Cu 4.51874266 6.32625341 9.94124593
Cu 6.32625958 4.51876039 9.94124441
Cu 6.32626416 6.32624751 8.13377015
Cu 4.51874479 8.13375003 0.90375182
Cu 4.51874222 9.94123229 2.71124178
Cu 6.32626036 8.13374614 2.71124647
Cu 6.32626470 9.94125429 0.90375667
Cu 4.51875808 8.13374040 4.51875095
Cu 4.51875115 9.94124782 6.32623887
Cu 6.32625426 8.13373296 6.32624042
Cu 6.32624164 9.94124531 4.51875805
Cu 4.51876608 8.13376647 8.13375770
Cu 4.51875402 9.94122624 9.94126091
Cu 6.32627572 8.13375389 9.94125203
Cu 6.32625659 9.94125662 8.13375105
Cu 8.13374595 0.90375298 0.90373611
Cu 8.13373100 2.71126289 2.71124517
Cu 9.94125676 0.90376481 2.71126181
Cu 9.94124417 2.71125262 0.90373815
Cu 8.13374862 0.90375977 4.51875003
Cu 8.13372139 2.71122708 6.32624176
Cu 9.94126288 0.90375137 6.32625111
Cu 9.94123661 2.71125085 4.51872716
Cu 8.13375305 0.90376109 8.13374160
Cu 8.13376041 2.71124226 9.94125117
Cu 9.94124831 0.90375033 9.94126485
Cu 9.94125840 2.71124268 8.13372230
Cu 8.13375853 4.51875697 0.90375135
Cu 8.13374413 6.32626524 2.71123199
Cu 9.94124188 4.51873486 2.71125339
Cu 9.94124504 6.32627033 0.90374989
Cu 8.13374729 4.51875508 4.51874245
Cu 8.13373892 6.32625470 6.32624486
Cu 9.94125934 4.51875272 6.32625086
Cu 9.94125034 6.32624854 4.51875375
Cu 8.13374572 4.51872999 8.13375048
Cu 8.13374509 6.32623575 9.94125745
Cu 9.94124589 4.51873210 9.94124897
Cu 9.94124297 6.32623253 8.13375280
Cu 8.13373925 8.13375652 0.90374081
Cu 8.13375935 9.94125362 2.71125079
Cu 9.94124217 8.13375837 2.71125470
Cu 9.94124607 9.94125515 0.90373954
Cu 8.13373697 8.13374845 4.51875041
Cu 8.13375390 9.94125004 6.32626201
Cu 9.94123687 8.13375503 6.32625195
Cu 9.94126310 9.94125064 4.51875285
Cu 8.13376712 8.13375729 8.13375574
Cu 8.13374579 9.94125078 9.94123333
Cu 9.94124130 8.13375581 9.94123207
Cu 9.94125058 9.94124958 8.13375357
108
Step=6 Lattice="10.845 0 0  0 10.845 0  0 0 10.845" Properties=species:S:1:pos:R:3
Cu 0.90373782 0.90374490 0.90376498
Cu 0.90375190 2.71126023 2.71125652
Cu 2.71124202 0.90375573 2.71124588
Cu 2.71124576 2.71125043 0.90373150
Cu 0.90376378 0.90374129 4.51876155
Cu 0.90375121 2.71126751 6.32624180
Cu 2.71124588 0.90375330 6.32622339
Cu 2.71125944 2.71126762 4.51876306
Cu 0.90375857 0.90374754 8.13376490
Cu 0.90376237 2.71125395 9.94124971
Cu 2.71124529 0.90373464 9.94126424
Cu 2.71122375 2.71124487 8.13375161
Cu 0.90375982 4.51877024 0.90376147
Cu 0.90374612 6.32625794 2.71123464
Cu 2.71126661 4.51874742 2.71124164
Cu 2.71124199 6.32624855 0.90374498
Cu 0.90377684 4.51874073 4.51875004
Cu 0.90374993 6.32624961 6.32625031
Cu 2.71124386 4.51874234 6.32623939
Cu 2.71123189 6.32625185 4.51876136
Cu 0.90374313 4.51874263 8.13374589
Cu 0.90374411 6.32623219 9.94126589
Cu 2.71125482 4.51874081 9.94125319
Cu 2.71124438 6.32624676 8.13375398
Cu 0.90376093 8.13376736 0.90376992
Cu 0.90374663 9.94124333 2.71125084
Cu 2.71125112 8.13374054 2.71124227
Cu 2.71125927 9.94126881 0.90374696
Cu 0.90374188 8.13374591 4.51873781
Cu 0.90374635 9.94125430 6.32624868
Cu 2.71126428 8.13375107 6.32625538
Cu 2.71124782 9.94126493 4.51873511
Cu 0.90374598 8.13373531 8.13375948
Cu 0.90375971 9.94124314 9.94126938
Cu 2.71124606 8.13373282 9.94124631
Cu 2.71125388 9.94124649 8.13377661
Cu 4.51875977 0.90376988 0.90376614
Cu 4.51872954 2.71124478 2.71121719
Cu 6.32624190 0.90376255 2.71123962
Cu 6.32624202 2.71125316 0.90375902
Cu 4.51874535 0.90374623 4.51875928
Cu 4.51875262 2.71124588 6.32625339
Cu 6.32625050 0.90375231 6.32627346
Cu 6.32624596 2.71124286 4.51876647
Cu 4.51874120 0.90376974 8.13374734
Cu 4.51875047 2.71125801 9.94126408
Cu 6.32626145 0.90374686 9.94124529
Cu 6.32625373 2.71125088 8.13374201
Cu 4.51875448 4.51876111 0.90375163
Cu 4.51876820 6.32625416 2.71124780
Cu 6.32625078 4.51874261 2.71123738
Cu 6.32625526 6.32623913 0.90374539
Cu 4.51874853 4.51875386 4.51875514
Cu 4.51875024 6.32622630 6.32624719
Cu 6.32624037 4.51874795 6.32626145
Cu 6.32625917 6.32625190 4.51875567
Cu 4.51873188 4.51875160 8.13375708
Cu 4.51874119 6.32625410 9.94124512
Cu 6.32626150 4.51876247 9.94124329
Cu 6.32626700 6.32624702 8.13377418
Cu 4.51874374 8.13375004 0.90375219
Cu 4.51874066 9.94122875 2.71124014
Cu 6.32626244 8.13374537 2.71124576
Cu 6.32626764 9.94125515 0.90375801
Cu 4.51875970 8.13373848 4.51875114
Cu 4.51875138 9.94124739 6.32623665
Cu 6.32625511 8.13372955 6.32623850
Cu 6.32623996 9.94124437 4.51875966
Cu 4.51876930 8.13376977 8.13375924
Cu 4.51875482 9.94122148 9.94126310
Cu 6.32628087 8.13375467 9.94125244
Cu 6.32625791 9.94125795 8.13375126
Cu 8.13374514 0.90375358 0.90373333
Cu 8.13372720 2.71126547 2.71124420
Cu 9.94125811 0.90376777 2.71126417
Cu 9.94124301 2.71125314 0.90373578
Cu 8.13374835 0.90376172 4.51875003
Cu 8.13371567 2.71122249 6.32624011
Cu 9.94126546 0.90375165 6.32625133
Cu 9.94123394 2.71125102 4.51872258
Cu 8.13375366 0.90376331 8.13373992
Cu 8.13376249 2.71124071 9.94125140
Cu 9.94124797 0.90375040 9.94126782
Cu 9.94126008 2.71124121 8.13371675
Cu 8.13376024 4.51875837 0.90375162
Cu 8.13374295 6.32626830 2.71122839
Cu 9.94124026 4.51873183 2.71125407
Cu 9.94124404 6.32627440 0.90374986
Cu 8.13374675 4.51875609 4.51874094
Cu 8.13373670 6.32625564 6.32624383
Cu 9.94126120 4.51875326 6.32625104
Cu 9.94125041 6.32624825 4.51875450
Cu 8.13374487 4.51872599 8.13375058
Cu 8.13374411 6.32623290 9.94125894
Cu 9.94124507 4.51872851 9.94124876
Cu 9.94124156 6.32622903 8.13375337
Cu 8.13373709 8.13375783 0.90373897
Cu 8.13376122 9.94125434 2.71125094
Cu 9.94124060 8.13376004 2.71125564
Cu 9.94124528 9.94125619 0.90373745
Cu 8.13373437 8.13374814 4.51875050
Cu 8.13375468 9.94125005 6.32626441
Cu 9.94123424 8.13375604 6.32625234
Cu 9.94126573 9.94125076 4.51875341
Cu 8.13377055 8.13375875 8.13375689
Cu 8.13374495 9.94125093 9.94122999
Cu 9.94123955 8.13375698 9.94122848
Cu 9.94125070 9.94124949 8.13375428
108
Step=7 Lattice="10.845 0 0  0 10.845 0  0 0 10.845" Properties=species:S:1:pos:R:3
Cu 0.90373579 0.90374405 0.90376747
Cu 0.90375222 2.71126193 2.71125761
Cu 2.71124069 0.90375668 2.71124520
Cu 2.71124505 2.71125051 0.90372841
Cu 0.90376608 0.90373984 4.51876348
Cu 0.90375142 2.71127043 6.32624043
Cu 2.71124520 0.90375385 6.32621895
Cu 2.71126102 2.71127056 4.51876524
Cu 0.90376000 0.90374713 8.13376739
Cu 0.90376444 2.71125461 9.94124966
Cu 2.71124450 0.90373208 9.94126662
Cu 2.71121937 2.71124402 8.13375188
Cu 0.90376146 4.51877362 0.90376338
Cu 0.90374548 6.32625927 2.71123208
Cu 2.71126938 4.51874699 2.71124024
Cu 2.71124065 6.32624831 0.90374414
Cu 0.90378132 4.51873919 4.51875005
Cu 0.90374991 6.32624955 6.32625036
Cu 2.71124284 4.51874106 6.32623762
Cu 2.71122886 6.32625216 4.51876326
Cu 0.90374198 4.51874140 8.13374520
Cu 0.90374313 6.32622922 9.94126855
Cu 2.71125562 4.51873928 9.94125372
Cu 2.71124344 6.32624622 8.13375465
Cu 0.90376275 8.13377025 0.90377325
Cu 0.90374607 9.94124222 2.71125098
Cu 2.71125131 8.13373896 2.71124098
Cu 2.71126082 9.94127195 0.90374645
Cu 0.90374053 8.13374522 4.51873578
Cu 0.90374574 9.94125502 6.32624846
Cu 2.71126666 8.13375125 6.32625627
Cu 2.71124746 9.94126742 4.51873262
Cu 0.90374531 8.13373286 8.13376106
Cu 0.90376133 9.94124200 9.94127261
Cu 2.71124540 8.13372995 9.94124569
Cu 2.71125452 9.94124590 8.13378105
Cu 4.51876140 0.90377319 0.90376883
Cu 4.51872612 2.71124391 2.71121171
Cu 6.32624055 0.90376464 2.71123789
Cu 6.32624068 2.71125369 0.90376052
Cu 4.51874458 0.90374561 4.51876082
Cu 4.51875305 2.71124520 6.32625396
Cu 6.32625058 0.90375269 6.32627738
Cu 6.32624529 2.71124166 4.51876922
Cu 4.51873973 0.90377304 8.13374690
Cu 4.51875055 2.71125934 9.94126644
Cu 6.32626337 0.90374633 9.94124451
Cu 6.32625435 2.71125103 8.13374068
Cu 4.51875523 4.51876296 0.90375190
Cu 4.51877124 6.32625485 2.71124743
Cu 6.32625092 4.51874138 2.71123528
Cu 6.32625614 6.32623731 0.90374462
Cu 4.51874829 4.51875450 4.51875600
Cu 4.51875028 6.32622235 6.32624673
Cu 6.32623876 4.51874761 6.32626336
Cu 6.32626070 6.32625222 4.51875661
Cu 4.51872886 4.51875186 8.13375826
Cu 4.51873972 6.32625478 9.94124431